ITEM: TIMESTEP
19200
ITEM: NUMBER OF ATOMS
4320
ITEM: BOX BOUNDS xy xz yz pp pp pp 
0 19.3872 0.07724
0 19.31 0
0 9.655 0
ITEM: ATOMS id type x y z ix iy iz msd_nonAffine 
3378 1 1.04625 0.511318 0.279447 1 1 1 0.0115044 
486 1 1.5169 0.755088 1.2685 0 1 1 0.0100994 
3226 1 8.26215 9.37754 4.03611 1 0 0 0.0276149 
332 1 0.908037 1.48989 0.810617 0 1 0 0.0259045 
964 1 2.09864 0.69539 0.414768 0 1 1 0.0380712 
2357 1 8.95333 4.9313 0.105254 0 0 0 0.0657348 
3697 2 1.8839 1.44191 0.880241 1 1 1 0.00106944 
135 1 2.7528 1.36983 1.02526 0 1 1 0.0263677 
1553 1 4.33007 0.741509 0.536065 0 0 0 0.025714 
4065 2 3.68299 1.41609 0.512454 1 1 1 0.00823115 
1198 1 3.43806 0.456279 0.857426 0 0 1 0.0305848 
868 1 3.7193 1.26004 1.53791 0 1 0 0.0148528 
3422 1 4.23072 0.346082 1.67423 1 1 0 0.08833 
1493 1 4.70484 1.35356 1.30699 0 1 1 0.0641768 
4074 2 5.03982 0.528311 0.909088 0 1 1 0.0248701 
3203 1 5.25826 1.15368 0.321746 1 0 0 0.0444711 
1264 1 5.94293 1.37498 1.14346 0 1 0 0.0438811 
376 1 5.87314 0.268681 0.872442 0 1 0 0.0228227 
3758 2 6.14855 0.725665 1.67084 0 0 1 0.0875162 
663 1 6.81117 0.648411 1.0941 0 0 0 0.0751543 
963 1 6.47318 1.13776 0.227986 0 1 1 0.0876435 
4222 2 6.55122 0.327119 0.276174 1 0 -1 0.0193109 
3797 2 7.51662 0.200575 0.996191 0 1 -1 0.0369823 
1216 1 9.05419 9.27085 3.51302 0 0 0 0.0596668 
2154 1 7.7195 0.784614 1.5903 0 0 1 0.0941084 
4078 2 8.04399 1.08701 0.196385 0 1 0 0.00303584 
1783 1 9.4072 0.462148 0.950952 0 1 0 0.0205866 
1177 1 8.74745 1.2555 0.766028 0 0 1 0.0309597 
2805 1 8.32358 0.339508 0.591367 1 1 1 0.0205743 
3124 1 9.4534 3.1178 1.78162 0 0 1 0.00563598 
3569 2 0.204047 6.30459 0.427768 0 0 2 0.0216277 
4165 2 9.54768 7.61609 2.47434 0 0 1 0.0114982 
3268 1 2.07904 9.65209 3.70742 1 0 0 0.0151194 
2926 1 1.57819 2.30579 0.52737 1 1 1 0.00594297 
2794 1 0.347529 2.46652 0.900836 1 0 0 0.0242132 
3597 2 0.999877 3.05326 1.23408 0 1 0 0.036463 
460 1 1.77104 0.132042 4.19597 0 1 0 0.0933374 
885 1 2.501 2.48792 0.926644 0 1 1 0.0271781 
2736 1 0.173484 3.90508 3.07847 1 0 0 0.0796658 
512 1 1.84339 3.26855 1.22191 0 0 0 0.0195218 
3535 2 3.19609 2.99768 1.22651 0 1 0 0.0193607 
938 1 0.627105 3.49466 4.78601 0 1 0 0.0243399 
3224 1 4.48941 1.8957 0.432976 1 1 0 0.0047169 
1822 1 3.5898 2.25494 0.999753 0 1 0 0.0222681 
1031 1 4.60391 2.45807 1.32181 0 0 0 0.0574932 
3604 2 4.00626 2.62371 0.279935 0 0 0 0.00409707 
4308 2 4.17636 1.92809 1.83067 0 0 1 0.105228 
640 1 4.87438 2.92617 0.414655 0 0 1 0.0292268 
1704 1 5.89167 3.01876 0.223459 0 0 1 0.013972 
1230 1 9.66114 5.43681 3.59367 0 0 1 0.0232111 
100 1 5.58577 3.13465 1.22645 0 0 0 0.00663432 
951 1 5.46972 2.20645 0.823398 0 1 1 0.0220697 
1055 1 7.51364 1.51087 0.743636 0 0 0 0.0280029 
3784 2 6.83323 1.5229 1.38651 0 0 -1 0.0529461 
629 1 6.57867 2.16516 0.630845 0 0 0 0.0206257 
1563 1 7.39725 2.5023 1.25296 0 0 0 0.0166828 
576 1 8.10602 3.14539 0.523918 0 0 0 0.00662652 
1632 1 8.17125 1.70579 1.58247 0 0 0 0.0422847 
3737 2 8.11455 2.26834 0.814484 1 1 0 0.0297134 
3175 1 8.95746 2.44131 0.76289 1 0 1 0.053804 
1395 1 8.41616 2.84245 1.53513 0 1 1 0.00875813 
2451 1 8.94242 8.7929 4.51196 0 0 1 0.0157989 
790 1 2.27623 0.000548794 1.35386 0 1 0 0.157758 
3383 1 1.02893 3.14838 0.31443 1 0 1 0.108665 
547 1 1.04493 3.88609 1.24081 0 0 1 0.0420214 
2997 1 0.33735 4.24529 0.383399 1 0 0 0.00993325 
72 1 1.56295 4.0499 0.367208 0 0 0 0.0161208 
1218 1 0.158235 4.59033 1.39941 0 0 2 0.0569126 
630 1 2.40595 9.47046 4.7243 0 0 0 0.0160481 
2007 1 1.85453 4.50987 1.33306 1 0 0 0.0326116 
3412 1 1.99062 0.292561 3.2196 1 1 0 0.0145532 
3150 1 2.77193 3.68394 0.959073 1 0 0 0.0574975 
1485 1 4.03851 3.17937 0.946768 0 1 1 0.011731 
380 1 4.63067 4.02496 0.208272 0 1 1 0.0194586 
34 1 3.66989 4.15594 0.599867 0 0 0 0.0109902 
1056 1 4.77027 4.06752 1.25302 0 0 0 0.0312588 
965 1 3.53835 3.74898 1.68314 0 0 1 0.0383747 
3915 2 5.36263 3.68852 0.59805 0 1 1 0.026982 
555 1 5.4066 4.72529 0.642858 0 0 0 0.00894069 
1214 1 6.12759 4.05085 0.732651 0 0 1 0.0211927 
910 1 5.62488 3.97035 1.85051 0 1 0 0.0913476 
810 1 6.92413 3.24688 0.519686 0 1 1 0.0159555 
3764 2 0.297299 5.2857 2.27403 0 0 2 0.0331256 
981 1 7.40988 4.20095 0.347593 0 1 0 0.0172742 
3546 2 6.97438 3.98344 1.02178 0 0 1 0.0284097 
2081 1 7.63207 3.57215 1.44224 0 0 0 0.0211472 
2050 1 6.59866 3.39937 1.47712 0 0 0 0.00658237 
787 1 7.66993 4.69345 4.75059 0 0 0 0.00240109 
639 1 9.1166 3.59259 0.877712 0 0 0 0.0346481 
1153 1 9.37635 4.68389 1.08424 0 0 0 0.00512276 
1946 1 8.34728 4.3379 0.782342 0 1 0 0.0240586 
3094 1 1.03915 4.88314 0.761006 1 0 0 0.0404148 
2010 1 1.14297 5.91132 0.471639 1 0 0 0.0170729 
768 1 1.71697 3.83481 4.71703 0 1 0 0.0141194 
1722 1 7.84921 0.0951699 2.58662 0 0 1 0.0476517 
648 1 7.90614 3.64184 4.74018 0 0 0 0.017933 
4081 2 1.98947 6.05452 0.455096 1 1 0 0.0505812 
1976 1 1.82359 5.54541 1.25596 0 0 1 0.0378298 
2670 1 2.0501 5.12383 0.306443 1 0 1 0.0491465 
1042 1 2.66381 6.09236 0.97912 0 0 1 0.0231434 
1233 1 2.89239 4.86802 0.927308 0 0 1 0.0166739 
3871 2 6.42774 8.00067 0.256561 0 0 0 0.0784484 
3059 1 3.64513 4.78821 1.5427 1 0 0 0.0319571 
2654 1 4.32348 4.98125 0.605908 1 0 1 0.00306664 
138 1 3.72088 5.81923 0.977297 0 0 1 0.00426627 
3671 2 3.48233 4.96149 0.291901 0 0 1 0.038946 
3034 1 5.04972 5.79744 1.01266 1 0 0 0.0177777 
3971 2 5.81239 5.59881 0.667862 0 0 0 0.0372371 
146 1 6.50938 6.08777 0.388749 0 0 0 0.0410847 
655 1 6.05613 6.00314 1.37365 0 0 0 0.0761098 
23 1 7.48179 6.64488 4.59785 0 0 0 0.119387 
2653 1 7.59444 4.90374 1.21511 0 0 1 0.0183292 
537 1 6.53112 5.12786 0.935545 0 0 0 0.0287164 
80 1 7.35606 5.83742 0.881376 0 0 -1 0.0139823 
4073 2 7.95641 5.72117 1.45025 0 0 0 0.361828 
3679 2 7.88115 4.97919 0.4001 0 1 2 0.101445 
1645 1 3.55406 3.43181 4.73974 0 0 0 0.0149758 
2105 1 6.94219 3.82575 4.70538 0 0 0 0.0360558 
1260 1 8.48387 9.49547 1.0411 0 0 0 0.103393 
2497 1 8.5884 5.54696 0.782836 0 0 0 0.140438 
1215 1 8.5652 5.02426 1.66896 0 0 1 0.0590048 
1504 1 3.17382 1.55029 4.58903 0 1 0 0.0313367 
1252 1 7.33645 0.578421 0.138203 0 1 1 0.0360834 
1077 1 0.761464 6.71536 0.952554 0 0 0 0.0195315 
17 1 1.38264 7.68787 1.04668 0 0 1 0.0328815 
946 1 7.39389 2.45796 0.103688 0 1 1 0.0307406 
2250 1 1.83659 6.6021 1.16506 1 0 0 0.0344044 
2303 1 2.1388 7.70857 0.423925 1 1 0 0.00767607 
3731 2 2.30849 7.89304 1.32038 0 0 0 0.0111609 
759 1 2.51186 6.73869 0.14127 0 0 1 0.00715744 
1830 1 2.75108 7.14356 1.18551 0 0 0 0.00668164 
516 1 0.47974 7.24851 0.158679 0 0 0 0.0388906 
961 1 4.45582 6.40729 0.442304 0 1 1 0.0286529 
3878 2 3.24754 6.58788 0.673786 0 0 2 0.00231774 
543 1 3.83246 7.21094 0.85769 0 0 1 0.0228624 
3626 2 5.875 1.75246 0.191891 0 0 0 0.0427687 
985 1 5.58774 6.61698 0.614911 0 0 1 0.00599471 
270 1 4.80667 7.3553 0.941791 0 0 0 0.0356256 
1191 1 6.54021 7.9925 1.11028 0 0 0 0.0170056 
4287 2 5.98723 7.31299 0.995254 0 0 0 0.0589969 
1305 1 6.1223 0.0527435 3.62912 0 1 0 0.044566 
1963 1 5.58889 7.75895 0.375266 0 0 1 0.00377399 
3539 2 7.31362 6.60277 0.589332 0 0 1 0.0565648 
1101 1 8.18683 6.48112 0.987041 0 0 1 0.222642 
1364 1 7.2992 7.59799 0.551583 0 0 0 0.0602375 
1222 1 6.69559 6.79216 1.15278 0 0 0 0.0596148 
1980 1 7.40043 7.43883 1.62964 0 0 0 0.194738 
353 1 2.31115 9.61484 0.621911 0 0 0 0.0204528 
2416 1 8.43778 7.59323 0.795924 0 0 1 0.0426516 
551 1 9.23955 6.70123 0.711686 0 0 0 0.0694371 
3522 2 0.00728425 1.65407 0.64192 0 0 0 0.0701592 
29 1 7.15111 5.22292 0.00135919 0 0 0 0.0226299 
646 1 0.878082 8.47637 0.602267 0 0 1 0.0222327 
3126 1 0.336989 9.17661 1.32487 1 0 1 0.0124188 
1813 1 7.97826 5.86032 0.0919936 0 0 1 0.0291881 
121 1 1.96261 8.64992 1.08475 0 0 0 0.0151706 
2833 1 2.67211 8.59313 0.357124 1 0 1 0.0134284 
959 1 3.13445 8.14591 1.20127 0 0 0 0.00285222 
998 1 3.16923 9.25284 1.08352 0 0 1 0.00692674 
2711 1 2.41526 1.8205 0.0583231 1 1 1 0.0160092 
645 1 4.24167 8.20415 1.27941 0 0 1 0.0229069 
203 1 3.71941 8.67203 0.439511 0 0 1 0.0207731 
3107 1 3.0095 5.68392 0.10628 1 0 1 0.0150976 
228 1 5.49645 9.28371 1.2817 0 0 0 0.170821 
2263 1 4.89941 8.64083 0.65759 0 0 0 0.0138049 
1120 1 5.47916 8.17364 1.35855 0 0 0 0.0612562 
3064 1 6.09352 8.77413 0.536274 1 0 0 0.028776 
204 1 6.28556 8.71741 1.71374 0 0 0 0.235324 
3840 2 9.52268 5.01896 2.86166 0 0 0 0.0395227 
3629 2 7.42806 8.18318 1.25654 0 0 0 0.558312 
1613 1 7.07768 8.90381 1.08015 0 0 1 0.017244 
2757 1 7.70564 9.46938 0.332701 0 0 0 0.00868915 
187 1 2.12437 3.20669 0.236571 0 0 0 0.00955529 
2626 1 7.98748 8.49754 0.760669 0 0 0 0.224371 
1908 1 9.08225 8.41204 1.00777 0 0 0 0.0159644 
4241 2 9.3032 9.16838 0.587958 0 0 1 0.08339 
4186 2 9.54294 1.28017 1.50988 0 1 1 0.0460656 
3994 2 0.132093 4.31672 4.74142 1 0 0 0.0744004 
3889 2 7.49589 9.6433 1.16682 0 -1 1 0.0687632 
2551 1 0.60645 0.683817 1.66306 1 0 0 0.0855053 
3279 1 0.971312 0.61842 2.71075 1 1 0 0.0564895 
597 1 0.945453 1.57353 2.18107 0 0 0 0.0880494 
993 1 0.631321 1.57233 3.16813 0 1 0 0.0523387 
3912 2 9.6341 3.14273 4.45137 0 1 0 0.0662062 
697 1 2.31513 9.4583 1.72277 0 0 0 0.0269378 
3011 1 2.00048 1.63063 1.79834 1 0 0 0.0322345 
2595 1 2.10167 0.570527 2.20716 0 0 0 0.0326913 
2565 1 1.66347 1.45945 2.88317 1 0 0 0.0355392 
1262 1 2.76305 1.47289 2.601 0 1 0 0.0206979 
950 1 3.15324 0.578284 1.99767 0 1 0 0.0270176 
1238 1 3.01628 0.580687 3.12011 0 0 0 0.0558214 
4130 2 3.8469 0.892708 2.34181 0 0 -1 0.0809607 
3430 1 4.68229 1.35922 2.36555 1 1 1 0.0263293 
3272 1 4.04774 0.904857 3.17629 1 1 0 0.0152546 
416 1 4.86313 0.359566 2.73871 0 1 1 0.0134617 
1875 1 5.31823 0.695193 1.78075 0 1 1 0.0318738 
3905 2 5.47234 1.11455 2.59218 1 1 0 0.00635897 
2405 1 6.16766 1.40481 2.22745 0 1 0 0.0317602 
27 1 5.93324 0.396597 2.57158 0 1 0 0.0424259 
2689 1 6.20198 1.1162 3.25921 1 0 0 0.00769706 
3459 2 6.86745 1.27257 2.73106 0 0 0 0.0275167 
1032 1 6.87708 0.646136 2.14874 0 0 0 0.0705408 
820 1 7.78718 1.18542 2.57221 0 1 0 0.0402144 
626 1 1.51571 6.87612 0.274746 0 0 0 0.00778278 
1863 1 8.78373 0.880841 1.79331 0 1 0 0.05054 
1231 1 8.9001 0.400211 2.62518 0 0 1 0.0214188 
3639 2 8.64953 1.19348 2.75821 0 0 1 0.00341301 
1694 1 6.48596 7.13944 0.0885528 0 0 1 0.0505368 
89 1 1.25659 2.31384 1.46482 0 0 -1 0.0395376 
1095 1 8.8236 6.41293 4.6579 0 0 0 0.0131534 
1234 1 0.352532 2.72421 2.01424 0 0 0 0.0165108 
2910 1 1.10845 2.4829 2.79315 1 0 1 0.0501899 
4068 2 0.60261 3.26366 2.70596 1 0 -1 0.0290491 
1647 1 1.37953 3.18087 2.18074 0 0 0 0.00221432 
3814 2 8.98926 2.91645 0.0762844 -1 0 2 0.0112088 
288 1 2.69973 3.08295 1.93066 0 1 0 0.0349887 
3586 2 2.06602 2.54674 1.68394 0 0 1 0.0218248 
636 1 2.07439 2.39328 2.53586 0 0 0 0.0110657 
3377 1 2.85384 2.82298 3.08683 1 1 1 0.115097 
3319 1 2.94956 2.04371 1.80058 1 1 0 0.0137232 
3952 2 4.40925 1.75706 3.0842 1 1 0 0.00197569 
1123 1 3.72649 1.73608 2.50097 0 0 0 0.00327462 
538 1 3.76095 2.75084 1.97654 0 0 0 0.0074844 
610 1 4.60439 2.3766 2.52558 0 0 0 0.0214867 
4097 2 4.97877 3.10942 2.88639 0 0 1 0.0501409 
527 1 5.38642 2.00145 1.7898 0 0 0 0.00182074 
427 1 6.36483 2.33569 1.63328 0 1 0 0.0023097 
699 1 5.61893 1.95645 2.83969 0 0 1 0.0142026 
1026 1 5.67105 2.8721 2.24034 0 0 0 0.0332541 
354 1 7.14836 1.87849 2.10891 0 1 0 0.00770896 
4141 2 7.87447 2.44439 2.07439 0 2 0 0.0320809 
2060 1 6.62122 2.17894 2.95824 0 0 0 0.0120117 
753 1 7.01696 2.94204 2.35641 0 0 1 0.00561983 
2422 1 7.61985 2.39018 3.02647 0 1 1 0.018373 
1250 1 9.22586 2.02421 1.66221 0 1 0 0.00805402 
706 1 8.51354 2.01678 2.45373 0 0 0 0.0309206 
1667 1 9.23968 2.39325 4.72785 0 0 0 0.0493797 
3921 2 8.72964 2.83766 2.345 0 1 -1 0.033396 
184 1 9.62139 3.22121 3.52003 -1 0 0 0.110499 
3554 2 3.58036 4.66286 4.78735 0 1 2 0.0368322 
1294 1 0.644384 3.97859 2.17507 0 1 0 0.0199341 
589 1 0.680736 4.85193 3.04957 0 0 0 0.0609933 
1221 1 9.50667 5.25255 1.99883 0 0 1 0.0516851 
402 1 1.17926 3.61885 3.1524 0 0 0 0.00592663 
3556 2 1.82219 3.88719 1.89435 0 1 1 0.0575301 
613 1 2.21087 3.56044 2.75332 0 0 -1 0.0692457 
2897 1 1.63349 4.36958 2.58449 1 1 1 0.0662253 
2002 1 2.56919 4.65336 2.97312 1 0 -1 0.00238896 
256 1 2.66885 4.48147 1.91283 0 0 0 0.0188619 
1433 1 4.08243 3.30585 2.75753 0 1 0 0.0200239 
3153 1 3.22231 3.8795 2.6536 1 0 1 0.0135366 
1288 1 4.29242 4.23562 2.27332 0 1 0 0.0326575 
1181 1 4.79813 3.39771 2.02757 0 0 0 0.00780087 
3295 1 5.17353 3.89536 2.94845 1 1 0 0.00483473 
2213 1 5.26299 4.82723 2.50784 0 0 1 0.0701968 
2427 1 6.32047 3.78184 2.64118 0 1 0 0.0211264 
4235 2 7.92612 3.29262 3.28495 1 0 -1 0.0638715 
649 1 6.72076 4.50838 1.73691 0 0 1 0.00571189 
3508 2 7.12842 3.76918 2.16181 0 1 1 0.0163331 
1639 1 7.80181 4.37637 2.11894 0 0 0 0.0465804 
1277 1 7.42408 3.94237 3.04594 0 0 -1 0.0326731 
1536 1 8.00467 3.28126 2.40717 0 0 0 0.0423862 
3869 2 8.30105 4.00683 2.84912 0 0 -1 0.00669701 
533 1 8.70729 3.95701 1.72995 0 0 0 0.000220896 
1158 1 9.06585 3.6317 2.67292 0 0 0 0.00955711 
1035 1 8.88077 4.65584 2.5554 0 0 1 0.0135327 
1347 1 1.18274 6.09466 1.85284 0 1 -1 0.0954735 
4118 2 5.99962 9.48449 1.95777 1 1 1 0.0493213 
3095 1 1.05468 4.9919 1.9585 1 0 0 0.0171831 
829 1 0.544802 5.99532 2.73004 0 0 0 0.0379533 
3608 2 1.32547 5.63747 2.60868 0 0 0 0.150934 
119 1 1.70072 5.21475 3.25223 0 0 1 0.091563 
118 1 2.05942 5.19597 2.22981 0 0 0 0.00505157 
99 1 2.22076 6.02776 3.07326 0 0 0 0.0156488 
633 1 2.37115 6.26826 2.08068 0 0 0 0.00774313 
3532 2 2.76822 5.49699 2.67384 0 1 0 0.0206762 
86 1 2.96952 5.55514 1.80592 0 0 0 0.0244429 
1004 1 3.48274 4.99181 2.6068 0 0 1 0.0180849 
1994 1 4.06975 5.69887 2.0376 0 0 0 0.00737294 
64 1 4.43747 5.2084 2.94451 0 0 -1 0.0319887 
875 1 3.29303 6.19372 2.6651 0 1 1 0.00761578 
157 1 4.43388 6.21438 2.90392 0 0 1 0.0195482 
3520 2 3.74961 5.69948 3.0801 0 0 0 0.0190717 
1139 1 4.65523 5.00869 1.60837 0 0 0 0.0481616 
3037 1 5.12784 5.79628 2.10136 1 0 0 0.0283087 
525 1 5.76872 5.00601 1.57499 0 0 0 0.0598118 
4053 2 6.12408 4.61851 2.53584 0 0 -1 0.0799408 
827 1 6.11501 5.54796 2.66768 0 0 0 0.0360772 
3575 2 6.37562 6.29092 3.09986 0 1 0 0.00903775 
1083 1 7.99573 4.78928 3.09412 0 0 0 0.0392348 
662 1 6.92697 5.48251 1.88393 0 0 1 0.0756106 
635 1 6.95509 4.87729 2.82846 0 0 0 0.0985869 
579 1 7.18757 5.92377 2.99184 0 0 0 0.142965 
1628 1 7.90056 5.50613 2.30511 0 0 0 0.0905234 
3475 2 8.00777 5.66782 3.40071 0 0 -1 0.177313 
724 1 4.11564 9.31583 3.95967 0 0 0 0.0145211 
1040 1 8.72511 6.03565 1.83756 0 0 1 0.0636204 
758 1 0.144306 5.07484 4.25204 0 0 0 0.0576875 
1156 1 8.82204 5.6158 2.82952 0 0 0 0.0178437 
2468 1 0.485055 7.09445 2.77152 1 0 0 0.112167 
3347 1 1.00908 7.20933 1.88134 1 0 0 0.0227233 
2790 1 1.54956 6.70701 2.68296 1 0 -1 0.0116909 
273 1 1.44428 7.73981 2.78467 0 0 -1 0.11787 
3072 1 0.546215 8.0603 3.34021 1 0 0 0.22076 
3920 2 0.709983 7.95781 2.46095 1 0 0 0.339441 
564 1 2.514 7.14164 2.87694 0 0 0 0.0168113 
770 1 2.01466 7.34671 1.89936 0 0 1 0.0452016 
4203 2 2.31825 8.04892 2.77101 0 0 0 0.00575851 
559 1 2.91611 7.9387 2.16324 0 0 0 0.0090558 
3827 2 2.82644 7.01842 2.05601 0 1 1 0.00932572 
3256 1 4.51333 6.53203 1.55583 1 0 0 0.00693858 
3257 1 3.45849 6.49779 1.63008 1 0 0 0.00201616 
3741 2 4.71844 7.51374 1.8289 0 -1 2 0.0608641 
2990 1 3.88024 7.43996 1.9157 1 0 0 0.00142099 
3855 2 3.93021 6.65607 2.30124 0 0 -1 0.0358722 
895 1 4.71716 7.12864 2.53408 0 0 1 0.0101361 
1530 1 3.67801 7.14192 2.92698 0 0 1 0.0186634 
3638 2 3.79681 8.01171 2.58213 0 0 0 0.00679117 
126 1 5.50931 7.76973 2.43609 0 0 0 0.0172741 
832 1 5.57261 6.94474 1.66248 0 0 0 0.0706345 
556 1 5.53556 6.4957 2.69831 0 0 0 0.0740305 
224 1 6.53043 6.46033 2.18531 0 0 0 0.0676643 
1602 1 6.39479 7.53185 2.05959 0 0 0 0.0348536 
1410 1 6.28889 7.19906 3.09928 0 0 0 0.019955 
1068 1 7.46866 6.3854 1.76968 0 0 0 0.119028 
1160 1 7.20827 7.03174 2.66406 0 0 1 0.0701645 
3953 2 7.7744 7.58487 2.42462 0 0 -2 0.110118 
1438 1 8.06972 6.42802 2.773 0 0 0 0.0750091 
2840 1 9.31054 7.44089 1.57426 0 0 0 0.0255645 
1539 1 8.32895 7.06123 1.89927 0 0 0 0.0565264 
1652 1 8.63969 7.78495 2.61272 0 0 1 0.0364412 
1388 1 9.18201 6.8388 2.52636 0 0 1 0.00602485 
3092 1 3.38282 9.30821 4.75713 1 0 0 0.00787695 
3547 2 8.68881 7.06024 3.26173 -1 1 0 0.00272518 
2566 1 1.25556 9.25399 1.69171 1 0 0 0.0153954 
18 1 0.734273 8.29696 1.66168 0 0 0 0.00925596 
4174 2 0.401752 9.19774 3.03222 1 0 0 0.00360674 
742 1 0.989069 8.76752 2.56187 0 0 1 0.010513 
3168 1 1.52323 7.57425 4.56442 1 0 0 0.0152665 
4236 2 0.223187 1.88391 2.4194 1 0 0 0.0218043 
136 1 1.91221 8.46585 2.09656 0 0 0 0.00550482 
3964 2 1.70757 9.27852 2.4837 0 0 0 0.0250968 
4284 2 2.71492 8.70705 1.77325 0 0 2 0.00640485 
2635 1 2.69935 8.90809 2.67542 1 0 0 0.00545664 
665 1 5.89895 8.28701 3.37755 0 0 1 0.0293259 
3973 2 4.8945 8.79197 1.64633 0 0 -1 0.223464 
144 1 3.60886 8.76704 1.89061 0 0 0 0.0255311 
644 1 4.60884 8.23532 2.28085 0 0 1 0.032019 
3269 1 3.8129 8.91108 2.95569 1 0 0 0.00871205 
774 1 4.52381 9.2897 2.32909 0 0 0 0.122509 
3815 2 5.13205 8.18601 3.02493 0 1 0 0.047532 
307 1 5.50499 8.79966 2.3365 0 0 0 0.030055 
3583 2 6.23139 8.34806 2.61939 -1 0 1 0.213638 
1016 1 6.36802 9.18598 2.70634 0 0 0 0.0524319 
1140 1 3.12057 7.60672 0.216185 0 0 0 0.0038294 
977 1 0.302646 6.10964 4.10531 0 1 1 0.056378 
1752 1 7.83564 8.47033 2.84218 0 0 0 0.0845365 
1832 1 7.11114 8.35838 2.13185 0 0 0 0.0891136 
1442 1 7.85379 9.05738 1.86179 0 0 0 0.0435591 
4279 2 7.26129 9.10744 2.50446 1 0 0 0.037062 
1529 1 6.99452 8.01903 3.13646 0 0 0 0.187097 
2447 1 8.81981 8.26282 3.64726 0 0 0 0.00835024 
1134 1 8.24584 8.10691 1.74095 0 0 1 0.0241259 
4223 2 8.66029 8.85107 1.6069 1 0 1 0.0624998 
1142 1 8.73169 8.76919 2.4652 0 0 1 0.0922234 
78 1 0.146612 1.67641 1.54057 0 0 0 0.0379748 
751 1 9.5279 8.32397 2.05716 0 0 1 0.0280978 
1089 1 7.00229 0.05999 4.26408 0 0 0 0.00780313 
107 1 1.3745 1.04308 3.87611 0 0 0 0.0299884 
412 1 0.225341 1.48928 4.13593 0 1 1 0.0609324 
2380 1 4.46432 9.57078 0.202802 0 0 0 0.00732591 
3410 1 2.50128 0.975939 3.93629 1 1 0 0.0151286 
3320 1 5.09612 9.35898 4.28257 1 0 0 0.0429924 
4194 2 4.5097 0.359804 3.55063 1 1 1 0.00237468 
401 1 3.61311 0.801658 4.06539 0 1 0 0.00211634 
627 1 4.55494 0.688107 4.3776 0 0 0 0.00936231 
355 1 4.22804 1.68386 3.96263 0 1 0 0.0355666 
431 1 0.477049 2.39369 4.65757 0 1 0 0.0124712 
3991 2 9.58778 6.04176 4.28964 0 1 1 0.0281262 
904 1 5.06305 1.1615 3.39889 0 1 2 0.0106753 
3947 2 2.73256 8.12015 4.24848 1 0 1 0.819373 
4038 2 5.35864 0.409157 3.40108 0 1 0 0.0592221 
3028 1 0.183992 6.46939 1.84898 1 0 0 0.124587 
3143 1 5.72128 0.854668 4.15858 1 0 0 0.0145905 
383 1 7.03157 0.432924 3.31713 0 1 1 0.041706 
1805 1 7.73002 0.923067 4.31788 0 1 -1 0.0277117 
1326 1 6.67996 1.07499 4.26178 0 1 -1 0.0195942 
1304 1 7.3018 1.40808 3.46973 0 1 0 0.0410662 
541 1 6.82826 9.62828 1.78518 0 0 0 0.0307406 
730 1 6.00752 9.25041 3.67702 0 0 1 0.0381596 
2177 1 8.18237 0.62362 3.42634 0 0 0 0.0251965 
2165 1 9.48613 9.23099 1.4583 0 0 1 0.03157 
1557 1 9.1351 1.06835 3.4948 0 0 0 0.00531638 
1227 1 8.87792 0.613379 4.35217 0 0 1 0.0192282 
4233 2 3.66241 0.0079805 3.52869 1 1 1 0.0159558 
518 1 1.5258 2.73734 4.5753 0 0 0 0.000661998 
3659 2 0.357371 2.17958 3.65605 1 1 -1 0.038081 
814 1 1.1582 2.07297 3.87713 0 1 0 0.0339584 
2675 1 0.547756 2.9915 3.75727 1 0 1 0.0316074 
4184 2 2.70468 3.88624 3.33788 1 1 -1 0.937702 
2537 1 1.76321 2.86665 3.57847 1 0 -1 0.0119253 
1396 1 2.11701 1.87158 4.51599 0 1 0 0.027019 
932 1 2.29201 1.99907 3.54348 0 1 1 0.0409307 
3340 1 3.04789 2.47542 4.17351 1 1 0 0.00973529 
151 1 3.20947 1.58365 3.50318 0 0 0 0.0448461 
607 1 3.87907 2.42957 3.31084 0 0 0 0.00944282 
778 1 4.19827 2.667 4.34249 0 1 0 0.0205487 
185 1 5.11906 1.65435 4.48851 0 0 1 0.0178487 
2024 1 5.2901 2.68834 4.42496 0 0 -1 0.0130442 
1736 1 4.92908 2.39917 3.5402 0 0 1 0.0114725 
1721 1 5.84693 2.97577 3.31539 0 0 0 0.0129417 
909 1 5.98156 1.90749 3.91484 0 1 0 0.0153311 
709 1 6.31109 3.04108 4.31833 0 0 0 0.00722338 
1878 1 7.09413 9.1302 3.36871 0 0 1 0.0149736 
1566 1 6.9274 3.06973 3.41223 0 0 0 0.0236831 
3854 2 7.7872 1.85656 4.14336 1 0 -2 0.0541109 
215 1 6.9909 2.26205 3.98685 0 0 0 0.0100727 
2149 1 7.8915 2.83761 4.02358 0 0 0 0.0574875 
571 1 1.24983 9.4956 0.656619 0 0 1 0.000111818 
517 1 5.76515 8.42229 4.46387 0 0 0 0.0115799 
1916 1 8.34434 1.68949 3.46464 0 1 1 0.0108011 
1626 1 9.47057 5.83558 0.103303 0 0 0 0.0804023 
2717 1 0.272625 5.43955 0.20358 1 0 0 0.0164168 
1624 1 8.60955 2.79254 3.18017 0 0 -1 0.0483596 
3044 1 8.67153 1.63134 4.41745 1 0 0 0.0695359 
1678 1 9.34521 2.15873 3.61621 0 0 0 0.0230981 
3717 2 8.63506 2.51403 4.00708 0 1 1 0.029354 
3493 2 6.62102 4.50602 0.240244 0 0 -1 0.0516306 
3993 2 1.33876 3.47316 3.9922 0 0 1 0.0574064 
2733 1 0.840788 4.23797 3.99572 1 0 1 0.0601944 
198 1 2.48986 3.46735 4.11713 0 0 1 0.0167998 
1728 1 1.9209 4.20517 3.65812 1 0 1 0.0354168 
194 1 1.97267 4.80531 4.55894 0 0 1 0.0384966 
487 1 4.98512 8.97585 3.2908 0 0 0 0.0451257 
301 1 3.06254 4.4534 3.92119 0 1 0 0.0140568 
710 1 4.71248 8.29247 4.1865 0 0 0 0.0327934 
70 1 1.72798 8.79408 0.0819149 0 0 0 0.0140743 
3155 1 3.96999 4.35392 3.33375 1 0 1 0.0651722 
1404 1 4.61353 3.41423 3.66487 0 1 1 0.027085 
2569 1 3.54221 3.52202 3.67749 1 0 0 0.0152873 
2989 1 4.10917 4.16825 4.32913 1 0 0 0.0239466 
738 1 9.63285 9.27261 2.5883 0 0 0 0.0147968 
335 1 4.90884 4.55786 3.74861 0 1 -1 0.0919263 
2553 1 5.4999 3.73758 4.14261 0 0 -1 0.0463891 
1874 1 6.4798 3.94933 3.71648 0 1 0 0.00621264 
33 1 6.0555 4.67098 4.37337 0 0 -1 0.0249984 
1422 1 6.12467 9.34181 4.70877 0 0 1 0.0070119 
2319 1 3.09196 0.955608 0.00335832 0 0 0 0.0315908 
1353 1 0.68564 0.623056 4.63612 0 1 0 0.0298562 
3864 2 7.29463 3.70333 3.89465 0 1 -1 0.0847551 
1532 1 7.24007 4.62052 3.8058 0 0 0 0.0134885 
1143 1 8.12428 3.93977 3.80496 0 0 1 0.0215958 
1503 1 7.09401 8.51882 0.131462 0 0 0 0.0279635 
1193 1 8.86053 3.31242 4.35342 0 0 1 0.025517 
3006 1 8.65484 4.47016 4.55589 1 0 0 0.00433909 
3780 2 8.96527 3.78552 3.50831 0 0 2 0.00940657 
821 1 3.12803 8.05231 3.17709 0 0 0 0.0043656 
2528 1 8.91128 4.65985 3.57669 0 0 0 0.0182512 
3694 2 9.16984 0.121234 3.5241 0 1 1 0.0307876 
4253 2 0.606467 5.54826 3.57786 1 0 0 0.0370029 
3839 2 1.2352 6.01303 4.55458 0 1 1 0.0217672 
2727 1 1.1906 5.24395 4.15822 1 0 0 0.0221853 
40 1 1.25111 6.11871 3.52725 0 0 0 0.0099256 
3309 1 0.159157 5.6143 1.21661 1 0 0 0.028472 
4122 2 0.467791 6.55601 3.4254 1 -1 0 0.0465304 
3902 2 2.39555 5.03091 3.80831 1 0 1 0.018146 
521 1 2.10539 5.80681 4.14871 0 0 0 0.0141419 
3640 2 2.87413 6.43 3.46316 0 -1 1 0.0112874 
221 1 2.94993 6.31681 4.36175 0 0 0 0.00956588 
1848 1 2.95419 5.23915 4.64477 0 1 -1 0.0269495 
1653 1 3.03001 5.48728 3.57571 0 0 0 0.00554526 
718 1 4.44309 6.19467 4.68347 0 0 0 0.0289745 
3477 2 3.65859 5.84999 4.34787 0 -1 -2 0.0217892 
1392 1 3.92878 5.16459 3.93476 0 1 1 0.0319859 
3523 2 4.49713 5.78113 3.74996 0 0 1 0.0465543 
1048 1 3.78649 6.38635 3.69563 0 0 0 0.0108408 
3141 1 5.32923 5.64246 3.27373 1 0 0 0.0046393 
1654 1 5.05774 5.48141 4.32845 0 0 0 0.167064 
172 1 5.82873 4.7045 3.3332 0 0 0 0.133946 
600 1 2.78591 8.89245 3.83268 0 0 0 0.0329266 
3600 2 8.05119 6.0175 4.54161 0 0 0 0.0134152 
4159 2 6.78695 6.15044 4.41978 0 0 0 0.107392 
1445 1 6.41451 5.57846 3.66339 0 0 1 0.0862609 
4100 2 6.93147 5.13496 4.47672 1 0 1 0.0036652 
2108 1 7.38745 5.66834 4.0197 0 0 0 0.0742544 
3798 2 8.08807 4.96969 4.01289 0 1 -1 0.00872876 
4230 2 8.76706 6.21163 0.130055 1 0 0 0.129095 
201 1 2.71208 4.23173 0.023844 0 0 2 0.0494795 
3526 2 9.42246 8.65166 3.06508 -1 0 0 0.0802158 
2037 1 8.65624 5.65628 3.99786 0 0 -1 0.00960062 
1876 1 8.05848 6.52059 3.79154 0 0 0 0.0781347 
3426 1 0.544856 7.94882 4.45388 1 0 0 0.0612234 
584 1 9.4569 1.35683 2.54684 0 0 0 0.0621315 
43 1 4.36642 7.88687 0.155595 0 0 0 0.0159703 
2119 1 0.667071 6.90447 4.67926 1 -1 1 0.104709 
466 1 1.13364 7.1814 3.68355 0 0 1 0.097726 
4240 2 1.21424 8.127 3.93159 1 -1 0 0.0443994 
2929 1 7.87524 8.48313 3.98648 0 0 1 0.0817985 
2556 1 2.16072 7.78541 3.70605 1 0 1 0.0568146 
434 1 2.09714 6.76672 3.77022 0 0 0 0.0524464 
666 1 3.12979 7.18921 3.86024 0 0 0 0.00567703 
1244 1 4.32756 7.89646 3.30728 0 0 0 0.0281599 
2399 1 4.30425 9.36993 1.2863 0 0 0 0.0984146 
534 1 4.27669 7.26408 4.18334 0 0 0 0.0117837 
3763 2 4.44085 7.02311 3.3309 1 0 1 0.0348101 
1349 1 7.28714 9.35631 4.41412 0 0 -1 0.0854517 
430 1 5.34126 7.34472 3.47734 0 0 0 0.0673194 
1275 1 5.28328 7.39595 4.54568 0 0 0 0.0427686 
766 1 4.96953 6.42464 3.82107 0 0 0 0.0419888 
57 1 6.01924 6.46611 3.96322 0 0 0 0.0167624 
1988 1 6.2792 7.50349 4.0636 0 0 0 0.0651833 
1039 1 3.58972 8.35213 4.01956 0 0 1 0.00322551 
2000 1 8.07462 9.57532 2.85756 0 0 0 0.0186311 
3041 1 7.00626 6.72127 3.63977 1 0 -1 0.024574 
1705 1 7.30612 7.61292 4.2376 0 0 1 0.100106 
177 1 7.97505 7.53279 3.43344 0 0 0 0.0156397 
2685 1 9.18134 6.4063 3.49304 0 0 0 0.0321906 
1453 1 8.76461 7.31005 4.07181 0 0 0 0.0136456 
2861 1 9.41561 7.53397 3.33966 0 0 0 0.0227877 
3071 1 6.69547 8.45887 4.12204 1 0 0 0.0192494 
4137 2 1.54189 9.30783 4.28657 1 1 1 0.170598 
2169 1 0.985218 8.91389 3.68877 1 0 0 0.0700334 
12 1 0.154358 7.86556 0.923654 0 0 0 0.0316616 
2302 1 9.52861 5.25665 4.57969 0 0 0 0.00635691 
2995 1 1.872 8.56314 4.40581 1 0 0 0.0237258 
465 1 1.85006 8.69748 3.18574 0 0 0 0.02552 
2644 1 0.846453 9.07952 4.78615 1 0 1 0.0335928 
1554 1 3.1871 3.02155 0.212499 1 0 0 0.022894 
1362 1 8.63907 8.96023 0.12119 0 0 0 0.018619 
3247 1 3.81946 0.0127938 2.60014 1 1 0 0.0222368 
979 1 0.0513988 0.776141 0.812323 0 1 0 0.0412905 
2532 1 0.783536 0.148835 3.72886 1 0 0 0.0756037 
3304 1 2.55168 7.48565 4.77129 1 0 0 0.0158058 
3376 1 1.84985 6.57937 4.77223 1 1 -1 0.0186674 
140 1 9.55881 4.16067 4.11196 0 0 1 0.00929582 
1526 1 9.63962 8.41632 0.0752855 0 0 1 0.0250172 
303 1 9.48946 2.38157 2.62512 0 1 0 0.0646299 
2100 1 8.04312 6.93283 0.0441014 0 0 0 0.202818 
568 1 8.33445 7.8997 4.7553 0 0 -1 0.0522205 
748 1 9.68055 8.03562 4.60364 0 0 0 0.0811957 
1104 1 8.35831 2.01884 0.0336697 0 0 0 0.00485659 
3903 2 8.92769 0.343576 0.0047229 0 1 -1 0.0331344 
3024 1 1.00472 0.835586 5.66649 1 1 0 0.024311 
3558 2 0.329175 1.31653 6.03065 1 0 1 0.00345056 
2184 1 1.31956 0.105297 6.34968 1 0 0 0.0740317 
2937 1 1.42682 1.45423 9.60824 1 1 -1 0.00295843 
2188 1 9.48915 3.94106 5.14366 0 0 0 0.0509283 
1276 1 2.15723 0.83014 6.10461 0 0 -1 0.0460269 
4300 2 1.6465 1.4253 5.5593 0 1 0 0.0536924 
2933 1 2.57365 1.44235 5.43504 0 1 0 0.0245493 
3188 1 1.79725 0.848599 4.92296 1 0 0 0.0240431 
1764 1 3.1242 0.543858 5.9526 0 1 -1 0.0113736 
4273 2 4.35522 0.815314 5.90627 1 1 0 0.0100248 
1720 1 3.8516 0.651349 5.0882 0 0 0 0.0113088 
578 1 3.62512 1.43865 5.8035 0 0 0 0.00301673 
3999 2 4.40371 8.68655 9.56405 0 0 0 0.00653762 
582 1 4.96306 0.961147 5.31389 0 0 0 0.0167655 
471 1 4.99245 0.313391 6.28332 0 1 1 0.00531745 
417 1 5.67672 0.965782 6.04444 0 1 0 0.0189505 
2048 1 5.96549 1.19376 5.08076 0 0 -1 0.0113564 
1688 1 7.55434 0.134494 8.72165 0 0 0 0.0360785 
2201 1 7.00146 0.805587 5.29627 0 0 0 0.00971294 
880 1 6.58182 0.369427 6.24747 0 1 0 0.0157837 
1710 1 8.04865 1.23711 5.27956 0 0 1 0.00716507 
2214 1 6.52698 6.81625 4.8811 0 0 1 0.0426795 
286 1 7.53364 1.11592 6.36637 0 1 0 0.00719608 
1310 1 6.59897 1.61655 5.71732 0 1 0 0.0459404 
1036 1 9.15866 1.04207 5.27343 0 0 1 0.00251452 
1291 1 8.63087 0.834397 6.1136 0 1 0 0.0330203 
1051 1 2.7705 4.20028 4.88939 0 0 0 0.0574864 
2493 1 9.40842 1.51605 6.3875 0 0 0 0.0072018 
62 1 7.54195 9.61552 7.21095 0 0 -1 0.0944086 
4048 2 1.04705 2.50655 5.32633 1 1 0 0.0203554 
141 1 1.02337 1.87276 5.97613 0 0 0 0.0175036 
1527 1 0.409449 2.95357 5.64161 1 0 -1 0.0582785 
154 1 1.50975 3.2601 5.5218 0 0 0 0.0235703 
3324 1 1.98448 2.26229 5.43719 1 1 0 0.0107042 
2068 1 8.44012 0.214486 5.21695 0 0 0 0.00308193 
1521 1 2.41842 3.21029 6.18878 0 0 0 0.0614968 
3488 2 9.55204 7.38116 8.83787 -1 0 -1 0.248302 
1131 1 2.94109 2.32813 6.00331 0 0 0 0.00480979 
4054 2 6.60559 8.79637 5.25856 1 0 0 0.0357916 
1069 1 4.66843 1.67574 6.02823 0 0 0 0.000684993 
248 1 4.6979 2.48424 5.26786 0 0 0 0.00994131 
83 1 4.08758 2.62762 6.13877 0 0 -1 0.0427371 
1425 1 3.57105 2.45632 5.23527 0 1 0 0.00354467 
3503 2 4.1645 3.11601 5.38931 0 0 1 0.0124402 
1801 1 5.09656 2.64528 6.37212 0 1 0 0.0305531 
3727 2 6.22771 1.94774 6.44375 0 1 -1 0.0253457 
881 1 5.60972 2.92652 5.41526 0 1 1 0.028788 
2093 1 5.60213 1.93451 5.72566 0 0 0 0.0120266 
1082 1 6.61467 2.68035 5.84218 0 0 -1 0.0201624 
1117 1 7.5894 2.17315 5.80226 0 0 0 0.0191482 
1446 1 8.13389 2.45289 4.91793 0 1 0 0.0813274 
2097 1 8.74298 1.97881 5.65204 0 0 0 0.0132862 
3688 2 9.31531 2.62021 5.65852 0 0 2 0.00399218 
4301 2 8.296 2.65853 5.88833 0 0 0 0.049105 
941 1 0.786339 3.90785 5.86489 0 1 0 0.0315795 
621 1 6.51935 3.74761 9.41995 0 0 0 0.00608105 
1826 1 8.86722 8.4471 8.8906 0 0 -1 0.00678488 
1821 1 9.40256 9.5719 9.3999 0 0 -1 0.0178499 
558 1 3.92614 7.99036 4.90739 0 0 0 0.046479 
3747 2 2.16322 3.8284 5.43089 0 0 0 0.0532701 
389 1 1.70107 4.75211 5.72428 0 1 0 0.0969624 
719 1 2.61742 4.25371 6.0103 0 0 1 0.0282002 
1321 1 1.67133 3.86952 6.47584 0 0 0 0.00339486 
1477 1 3.32108 3.4878 5.83045 0 1 0 0.0391747 
3003 1 1.02139 9.50863 8.41 1 0 -1 0.0195335 
1924 1 4.76211 3.50595 5.83329 0 0 0 0.00743835 
341 1 4.01532 4.16177 5.38455 0 1 0 0.014373 
4042 2 4.07109 3.65346 6.25075 0 1 1 0.0401624 
1237 1 3.62439 6.89336 4.8834 0 0 0 0.0316789 
1074 1 5.24952 4.47744 5.89659 0 0 0 0.031828 
4088 2 6.09385 4.40503 5.97002 1 0 -1 0.0807575 
1136 1 5.8727 3.95519 5.17674 0 0 0 0.0409964 
1565 1 5.68566 3.62025 6.2661 0 0 -2 0.0231907 
127 1 7.63311 3.28005 5.65993 0 0 0 0.000195895 
4117 2 6.44498 3.30795 5.26007 0 0 0 0.0272792 
1819 1 6.67637 3.75151 5.86325 0 0 0 0.0123299 
3970 2 7.33814 4.19629 5.401 0 1 -1 0.0161369 
96 1 6.79584 4.81225 6.29394 0 0 0 0.0128122 
1261 1 7.64278 4.12351 6.45302 0 0 0 0.0215487 