ITEM: TIMESTEP
57600
ITEM: NUMBER OF ATOMS
4320
ITEM: BOX BOUNDS xy xz yz pp pp pp 
0 19.5417 0.23172
0 19.31 0
0 9.655 0
ITEM: ATOMS id type x y z ix iy iz msd_nonAffine 
3378 1 1.06906 0.526437 0.230485 1 1 1 0.0228875 
486 1 1.41813 0.78031 1.16169 0 1 1 0.0465762 
946 1 7.36845 2.49775 0.157166 0 1 1 0.0568948 
332 1 0.874309 1.60264 0.931223 0 1 0 0.0462433 
964 1 2.14302 0.709265 0.421535 0 1 1 0.0259796 
187 1 2.07205 3.29816 0.271782 0 0 0 0.0230461 
3697 2 1.77408 1.54222 0.786463 1 1 1 0.0397975 
135 1 2.63569 1.46569 0.942996 0 1 1 0.0963425 
1553 1 4.30747 0.692748 0.539322 0 0 0 0.0259157 
4065 2 3.49729 1.5093 0.555012 1 1 1 0.093303 
1198 1 3.2949 0.647453 0.968292 0 0 1 0.172841 
868 1 3.69812 1.48023 1.47608 0 1 0 0.0456459 
3422 1 4.12242 0.376121 1.65417 1 1 0 0.141875 
1493 1 4.69647 1.45678 1.31066 0 1 1 0.0934785 
4074 2 5.03244 0.601655 1.0628 0 1 1 0.0684288 
3203 1 5.31064 1.12619 0.336099 1 0 0 0.028538 
1264 1 5.95497 1.41472 1.21263 0 1 0 0.0647786 
376 1 5.84729 0.395593 0.90005 0 1 0 0.0524387 
3758 2 6.11285 0.710464 1.71163 0 0 1 0.122885 
663 1 6.76434 0.747588 1.16092 0 0 0 0.102759 
963 1 6.55695 1.32264 0.316272 0 1 1 0.076546 
4222 2 6.49919 0.4093 0.317005 1 0 -1 0.0376029 
3092 1 3.50761 9.26906 4.75725 1 0 0 0.00413095 
748 1 9.67212 7.90358 4.56351 0 0 0 0.0414573 
2154 1 7.70938 0.858801 1.50731 0 0 1 0.0617474 
979 1 0.0709109 0.863218 0.858583 0 1 0 0.0316427 
1783 1 9.3419 0.44984 1.05601 0 1 0 0.046056 
1177 1 8.59037 1.47769 0.998836 0 0 1 0.0399916 
2805 1 8.34782 0.465997 0.628338 1 1 1 0.0106382 
3124 1 9.37958 3.09051 1.89816 0 0 1 0.00915805 
3493 2 6.19305 4.47873 0.0995034 0 0 -1 0.156337 
1353 1 0.634463 0.510154 4.68069 0 1 0 0.0180542 
3912 2 9.60203 3.20128 4.47506 0 1 0 0.0435128 
2926 1 1.45786 2.41 0.700064 1 1 1 0.0311769 
2794 1 0.358526 2.57529 0.953375 1 0 0 0.034774 
3597 2 0.903592 3.16806 1.4943 0 1 0 0.0692811 
12 1 0.158993 7.7714 0.940771 0 0 0 0.016949 
885 1 2.56038 2.60001 0.931355 0 1 1 0.025669 
3889 2 7.64214 9.50555 1.24538 0 -1 1 0.0158809 
512 1 1.72887 3.27564 1.18024 0 0 0 0.013309 
3535 2 3.23816 3.06687 1.41388 0 1 0 0.0601209 
516 1 0.375682 7.23827 0.0317311 0 0 0 0.0553049 
3224 1 4.37154 1.92655 0.497329 1 1 0 0.0453935 
1822 1 3.55495 2.36251 1.06114 0 1 0 0.0728382 
1031 1 4.48998 2.6178 1.37109 0 0 0 0.0715265 
3604 2 3.92017 2.68319 0.299489 0 0 0 0.0336484 
4308 2 4.20685 1.94395 1.89049 0 0 1 0.133927 
640 1 4.78033 3.08811 0.421749 0 0 1 0.0736186 
1704 1 5.84277 3.09306 0.331762 0 0 1 0.0479087 
305 1 0.118976 3.54001 1.31844 0 1 -1 0.0298544 
100 1 5.49319 3.04759 1.35369 0 0 0 0.0611809 
951 1 5.34463 2.18159 0.81357 0 1 1 0.0791599 
1055 1 7.44193 1.67156 0.758811 0 0 0 0.0195615 
3784 2 6.84682 1.72761 1.29214 0 0 -1 0.000950567 
629 1 6.44367 2.26287 0.730952 0 0 0 0.0642247 
1563 1 7.34996 2.53808 1.31903 0 0 0 0.0307311 
576 1 8.08935 3.16067 0.663181 0 0 0 0.0511946 
1632 1 7.96088 1.8394 1.70851 0 0 0 0.0525878 
3737 2 8.13632 2.23739 0.993328 1 1 0 0.0729005 
3175 1 9.06211 2.37369 0.798156 1 0 1 0.0231 
1395 1 8.43701 2.77557 1.5901 0 1 1 0.0302888 
571 1 1.30441 9.57466 0.590201 0 0 1 0.0110613 
790 1 2.31063 0.369773 1.45032 0 1 0 0.0625714 
3383 1 0.993502 3.25885 0.408323 1 0 1 0.0397988 
547 1 0.995606 4.02487 1.27934 0 0 1 0.044827 
2997 1 0.390739 4.35543 0.464939 1 0 0 0.007972 
72 1 1.41994 4.14788 0.29867 0 0 0 0.0681539 
4230 2 8.62345 6.45751 0.270773 1 0 0 0.0559414 
3028 1 0.107766 6.56565 1.9609 1 0 0 0.116189 
2007 1 1.96959 4.46781 1.2802 1 0 0 0.02735 
3563 2 6.5038 9.23235 2.38553 0 0 0 1.17485 
3150 1 2.68514 3.69939 1.10145 1 0 0 0.0243815 
1485 1 3.8815 3.33737 0.894133 0 1 1 0.0297488 
380 1 4.53366 4.08071 0.229659 0 1 1 0.0221906 
34 1 3.46749 4.14348 0.560327 0 0 0 0.0276532 
1056 1 4.6849 3.93763 1.21079 0 0 0 0.00233296 
965 1 3.64505 3.82322 1.76636 0 0 1 0.0419261 
3915 2 5.31965 3.71595 0.678642 0 1 1 0.022921 
555 1 5.42603 4.63804 0.63778 0 0 0 0.00991415 
1214 1 6.09762 3.91027 0.801499 0 0 1 0.0639584 
910 1 5.62868 4.0594 1.7711 0 1 0 0.0467497 
810 1 6.99541 3.28324 0.623333 0 1 1 0.00976205 
2000 1 7.81723 9.60819 2.86703 0 0 0 0.154732 
981 1 7.28255 4.2731 0.445034 0 1 0 0.0318507 
3546 2 6.90087 4.00019 1.11647 0 0 1 0.0355728 
2081 1 7.53955 3.51538 1.44668 0 0 0 0.0728011 
2050 1 6.49971 3.41517 1.60021 0 0 0 0.018783 
303 1 9.38683 2.46883 2.83152 0 1 0 0.069129 
639 1 9.03919 3.40806 0.916544 0 0 0 0.00230371 
1153 1 9.38164 4.53264 1.07748 0 0 0 0.0187511 
1946 1 8.30294 4.25201 0.764916 0 1 0 0.0391424 
3094 1 1.00162 5.06387 0.914723 1 0 0 0.0315034 
2010 1 1.123 6.007 0.512113 1 0 0 0.00368966 
2451 1 9.0245 8.80966 4.52116 0 0 1 0.0116651 
738 1 9.42752 9.21456 2.59188 0 0 0 0.154303 
1626 1 9.34292 5.94655 0.0516213 0 0 0 0.0622044 
4081 2 2.01318 6.19618 0.510332 1 1 0 0.00976744 
1976 1 1.83899 5.69158 1.26966 0 0 1 0.0135827 
2670 1 2.01443 5.22679 0.241938 1 0 1 0.03194 
1042 1 2.67166 6.21936 1.05061 0 0 1 0.0137747 
1233 1 2.78799 5.00685 0.919221 0 0 1 0.0158145 
3206 1 9.66662 5.59437 1.01615 0 0 0 0.0521264 
3059 1 3.7464 4.83856 1.46477 1 0 0 0.00681066 
2654 1 4.25846 5.00399 0.523021 1 0 1 0.0298367 
138 1 3.70644 5.83756 0.895037 0 0 1 0.0123354 
3671 2 3.47018 5.02907 0.332819 0 0 1 0.0262399 
3034 1 4.80427 5.87142 1.11432 1 0 0 0.0490304 
3971 2 5.60148 5.53431 0.772564 0 0 0 0.0605913 
146 1 6.39731 5.99136 0.473776 0 0 0 0.0230644 
655 1 5.81596 6.08316 1.40354 0 0 0 0.0238888 
977 1 0.134231 6.04501 4.03869 0 1 1 0.0348388 
2653 1 7.47602 4.82326 1.26917 0 0 1 0.0375435 
537 1 6.45231 4.97186 0.812668 0 0 0 0.0205448 
80 1 7.34517 5.68923 0.861889 0 0 -1 0.0689798 
4073 2 7.98786 6.05056 1.45403 0 0 0 0.104766 
3679 2 7.84093 4.99705 0.434276 0 1 2 0.12979 
3526 2 9.23198 8.28786 2.9601 -1 0 0 0.0671964 
1645 1 3.41427 3.60343 4.59034 0 0 0 0.120964 
4165 2 9.62711 7.49344 2.5453 0 0 1 0.0252187 
2497 1 8.55155 5.71752 0.825286 0 0 0 0.0497279 
1215 1 8.52241 5.0207 1.54272 0 0 1 0.0254188 
23 1 7.5303 6.71656 4.61223 0 0 0 0.0927225 
2644 1 0.924907 9.07639 4.69011 1 0 1 0.0186097 
1077 1 0.629657 6.824 1.12396 0 0 0 0.0471066 
17 1 1.31925 7.78711 1.01755 0 0 1 0.0811607 
1412 1 8.31372 0.0899467 1.6999 0 1 0 0.0505713 
2250 1 1.7292 6.75265 1.17548 1 0 0 0.0293465 
2303 1 2.09405 7.84889 0.340109 1 1 0 0.0133284 
3731 2 2.14141 7.81648 1.38551 0 0 0 0.0515673 
759 1 2.50423 6.86042 0.17949 0 0 1 0.0274064 
1830 1 2.71124 7.21674 1.24735 0 0 0 0.00693437 
1252 1 7.38295 0.549069 0.168748 0 1 1 0.026009 
961 1 4.35211 6.63086 0.444909 0 1 1 0.0136055 
3878 2 3.37147 6.63137 0.762288 0 0 2 0.00782976 
543 1 3.81074 7.37657 0.852867 0 0 1 0.00489929 
3412 1 1.82691 0.305234 3.40836 1 1 0 0.0348574 
985 1 5.56791 6.51489 0.589323 0 0 1 0.0113813 
270 1 4.96409 7.33735 0.869035 0 0 0 0.0614122 
1191 1 6.53054 7.88933 0.95048 0 0 0 0.0299471 
4287 2 5.85032 7.34333 0.964306 0 0 0 0.0320351 
140 1 9.55645 4.20123 4.1913 0 0 1 0.00815271 
1963 1 5.70802 7.86934 0.222735 0 0 1 0.0451567 
3539 2 7.02786 6.4979 0.640289 0 0 1 0.0418824 
1101 1 7.87801 6.59003 0.785514 0 0 1 0.0537743 
1364 1 7.28548 7.42421 0.37091 0 0 0 0.01457 
1222 1 6.51714 6.8821 1.15723 0 0 0 0.0624627 
1980 1 7.46514 7.37916 1.43163 0 0 0 0.200164 
3107 1 2.93535 5.72743 0.107846 1 0 1 0.0178578 
2416 1 8.49954 7.40586 0.793807 0 0 1 0.145812 
551 1 9.17655 6.5974 0.964043 0 0 0 0.0451557 
4223 2 8.66451 9.58938 2.72577 1 0 1 1.29946 
3168 1 1.45705 7.66267 4.62327 1 0 0 0.056972 
646 1 0.865232 8.62599 0.671567 0 0 1 0.10972 
3126 1 0.336105 9.20477 1.29136 1 0 1 0.0137639 
2105 1 6.83747 3.96421 4.74402 0 0 0 0.00521005 
121 1 2.10442 8.63842 1.10146 0 0 0 0.0377203 
2833 1 2.76378 8.7003 0.308427 1 0 1 0.00996252 
959 1 3.22993 8.12364 1.23923 0 0 0 0.00546366 
998 1 3.16628 9.13851 1.13524 0 0 1 0.0190245 
787 1 7.63303 4.71877 4.76041 0 0 0 0.00445606 
645 1 4.36198 8.23168 1.25433 0 0 1 0.0121652 
203 1 3.8508 8.67338 0.469935 0 0 1 0.00747114 
3840 2 9.43511 5.04889 2.88958 0 0 0 0.0210016 
228 1 5.4333 9.39471 1.20699 0 0 0 0.106131 
2263 1 5.10242 8.70365 0.576142 0 0 0 0.023654 
1120 1 5.42532 8.18518 1.39273 0 0 0 0.0384793 
3064 1 6.13564 8.81033 0.38977 1 0 0 0.0118159 
204 1 6.26898 8.7165 1.65118 0 0 0 0.17486 
705 1 9.69761 3.89594 0.277994 0 0 0 0.0707996 
3629 2 7.16246 8.2441 1.5632 0 0 0 1.34045 
1613 1 7.03316 8.83632 1.01413 0 0 1 0.0175131 
2757 1 7.64445 9.45356 0.235566 0 0 0 0.0520123 
3694 2 9.06317 0.172742 3.53131 0 1 1 0.0217267 
2626 1 7.83501 8.21998 0.904991 0 0 0 0.493871 
1908 1 9.02862 8.33759 1.06399 0 0 0 0.0451523 
3226 1 8.17555 9.42772 4.2069 1 0 0 0.00591552 
1216 1 8.92551 9.25049 3.47894 0 0 0 0.100845 
2302 1 9.44327 5.18484 4.72222 0 0 0 0.0473107 
1722 1 7.7746 0.0878559 2.57648 0 0 1 0.0730733 
2551 1 0.535129 0.662693 1.87247 1 0 0 0.0935451 
3279 1 0.983394 0.548244 2.81476 1 1 0 0.0362524 
597 1 0.953109 1.50696 2.23744 0 0 0 0.0690098 
993 1 0.583392 1.36617 3.26148 0 1 0 0.00657177 
333 1 2.58537 0.732116 4.75259 0 1 0 0.0833944 
3991 2 9.51369 5.93927 4.36332 0 1 1 0.0753646 
3011 1 1.90742 1.60678 1.66318 1 0 0 0.0431886 
2595 1 1.90246 0.809443 2.3541 0 0 0 0.0515342 
2565 1 1.58331 1.49117 3.21368 1 0 0 0.0675158 
1262 1 2.5808 1.60443 2.76619 0 1 0 0.0649713 
950 1 3.05168 0.938219 2.00199 0 1 0 0.0691245 
1238 1 2.83043 0.65396 3.07002 0 0 0 0.144065 
4130 2 3.98512 0.93617 2.31013 0 0 -1 0.055421 
3430 1 4.65192 1.4302 2.47942 1 1 1 0.084622 
3272 1 3.89716 0.999312 3.20171 1 1 0 0.075515 
416 1 4.73633 0.382333 2.63757 0 1 1 0.05656 
1875 1 5.21476 0.782131 1.83963 0 1 1 0.108141 
3905 2 5.39383 1.09479 2.72153 1 1 0 0.0457348 
2405 1 6.10612 1.40384 2.24564 0 1 0 0.0521056 
27 1 5.93212 0.334825 2.53655 0 1 0 0.0471994 
2689 1 6.10493 1.18844 3.26206 1 0 0 0.0284625 
3459 2 6.90325 1.17462 2.71335 0 0 0 0.0235763 
1032 1 6.87929 0.519618 2.20135 0 0 0 0.0809294 
820 1 7.72795 1.30372 2.57486 0 1 0 0.0609962 
3247 1 3.6467 0.175019 2.5416 1 1 0 0.109904 
1863 1 8.63722 1.07058 1.98569 0 1 0 0.0614037 
1231 1 8.84628 0.308527 2.69007 0 0 1 0.051 
3639 2 8.66481 1.21346 2.84862 0 0 1 0.0127451 
697 1 2.43336 9.52067 1.76188 0 0 0 0.0193563 
89 1 1.18417 2.35921 1.72837 0 0 -1 0.0378189 
1362 1 8.44699 8.74727 0.243475 0 0 0 0.118743 
1234 1 0.270545 2.8216 1.95542 0 0 0 0.0777499 
2910 1 0.879625 2.32812 2.97039 1 0 1 0.0436495 
4068 2 0.596928 3.20876 2.70609 1 0 -1 0.0139089 
1647 1 1.35445 3.24575 2.17318 0 0 0 0.0109331 
1095 1 8.83898 6.34661 4.7154 0 0 0 0.0223885 
288 1 2.52124 3.12935 1.95405 0 1 0 0.00474446 
3586 2 1.9759 2.62174 1.64051 0 0 1 0.0793628 
636 1 1.85452 2.36072 2.53359 0 0 0 0.0375988 
3377 1 2.91495 2.65274 2.84344 1 1 1 0.0369204 
3319 1 2.79446 2.11219 1.76659 1 1 0 0.0438167 
3952 2 4.51276 1.82405 3.17349 1 1 0 0.0327051 
1123 1 3.61168 1.80814 2.52433 0 0 0 0.0351335 
538 1 3.67012 2.67235 2.00978 0 0 0 0.0271479 
610 1 4.5399 2.42986 2.54179 0 0 0 0.0411992 
4097 2 4.99548 3.04463 2.96383 0 0 1 0.0451682 
527 1 5.26633 2.08227 1.89375 0 0 0 0.0377637 
427 1 6.26531 2.41119 1.72337 0 1 0 0.037468 
699 1 5.40103 1.95774 2.95904 0 0 1 0.100669 
1026 1 5.71835 3.0284 2.37353 0 0 0 0.0447922 
354 1 7.01519 1.88271 2.1764 0 1 0 0.0548579 
4141 2 7.68268 2.47779 2.21125 0 2 0 0.0352271 
2060 1 6.39925 2.1994 3.01589 0 0 0 0.0510081 
753 1 6.90789 2.96401 2.36662 0 0 1 0.0179026 
2422 1 7.5523 2.38334 3.06099 0 1 1 0.0467348 
1250 1 9.10777 2.07767 1.87372 0 1 0 0.0365255 
706 1 8.43409 2.07927 2.65065 0 0 0 0.0363261 
78 1 0.145468 1.81408 1.73515 0 0 0 0.0971843 
3921 2 8.67895 2.84498 2.39447 0 1 -1 0.0383755 
4233 2 3.53627 0.158582 3.46312 1 1 1 0.061729 
1260 1 8.53657 9.50048 0.900667 0 0 0 0.200612 
1294 1 0.590386 3.98653 2.23205 0 1 0 0.0209201 
589 1 0.535986 4.70816 3.08821 0 0 0 0.0247948 
718 1 4.33524 6.18129 4.70297 0 0 0 0.00928007 
402 1 1.10552 3.70268 3.10333 0 0 0 0.0463149 
3556 2 2.06087 3.78594 1.78836 0 1 1 0.0123211 
613 1 2.09793 3.52096 2.90165 0 0 -1 0.0863007 
2897 1 1.65354 4.3642 2.29337 1 1 1 0.0536454 
2002 1 2.52581 4.53381 2.97672 1 0 -1 0.01959 
256 1 2.76628 4.37709 1.92261 0 0 0 0.00955072 
1433 1 4.06603 3.38139 2.77269 0 1 0 0.0370596 
3153 1 3.06005 3.75928 2.64545 1 0 1 0.0929162 
1288 1 4.33802 4.35308 2.37296 0 1 0 0.0543483 
1181 1 4.81023 3.37316 2.06109 0 0 0 0.0126531 
3295 1 5.39052 3.94399 3.03677 1 1 0 0.0528919 
2213 1 5.26975 4.83628 2.42379 0 0 1 0.0971635 
2427 1 6.35654 3.82279 2.55396 0 1 0 0.0110272 
4235 2 7.72961 3.25783 3.21059 1 0 -1 0.0068906 
649 1 6.68401 4.48664 1.76585 0 0 1 0.0143072 
3508 2 7.10023 3.80943 2.12113 0 1 1 0.0239546 
1639 1 7.6919 4.40359 2.14559 0 0 0 0.0661258 
1277 1 7.33935 4.03566 2.98895 0 0 -1 0.00799163 
1536 1 7.94274 3.32862 2.37252 0 0 0 0.0228687 
3869 2 8.24979 4.03216 2.75083 0 0 -1 0.00873283 
533 1 8.64943 3.88238 1.81185 0 0 0 0.0168389 
1158 1 9.01457 3.61399 2.74427 0 0 0 0.00615295 
1035 1 8.8198 4.6626 2.48622 0 0 1 0.000458609 
1347 1 1.08459 6.17283 1.80682 0 1 -1 0.0316078 
185 1 5.08111 1.80874 4.73536 0 0 1 0.0741058 
3095 1 0.944557 5.10642 2.09243 1 0 0 0.0579134 
829 1 0.511193 6.08182 2.79201 0 0 0 0.0974999 
3608 2 1.63347 5.92654 2.50832 0 0 0 0.0156844 
119 1 1.58007 5.26846 3.12344 0 0 1 0.0131401 
118 1 2.16612 5.2455 2.25046 0 0 0 0.0032545 
99 1 2.25979 6.08803 3.10533 0 0 0 0.03577 
633 1 2.29602 6.33606 2.04568 0 0 0 0.00630863 
3532 2 2.76933 5.54319 2.71547 0 1 0 0.042308 
86 1 3.0764 5.60035 1.75883 0 0 0 0.031818 
1004 1 3.36672 5 2.54019 0 0 1 0.0716428 
1994 1 4.16213 5.71982 2.03163 0 0 0 0.00137004 
64 1 4.34939 5.21387 2.8882 0 0 -1 0.0596773 
875 1 3.19002 6.31199 2.58783 0 1 1 0.0624181 
157 1 4.46331 6.2564 2.9102 0 0 1 0.0265042 
3520 2 3.68379 5.78741 3.08183 0 0 0 0.0775477 
1139 1 4.7856 4.87621 1.55317 0 0 0 0.0447035 
3037 1 5.1618 5.88233 2.19042 1 0 0 0.00238055 
525 1 5.80139 5.08483 1.62592 0 0 0 0.0371156 
4053 2 6.08106 4.59795 2.44208 0 0 -1 0.127743 
827 1 6.10892 5.6342 2.65878 0 0 0 0.0178125 
3575 2 6.4631 6.40809 3.13679 0 1 0 0.00700825 
1083 1 7.90111 4.9271 3.02431 0 0 0 0.0235583 
662 1 6.7771 5.55632 1.8032 0 0 1 0.0507874 
635 1 6.83583 4.88921 2.79468 0 0 0 0.148391 
579 1 7.22945 5.92941 3.00758 0 0 0 0.149688 
1628 1 7.89059 5.51774 2.16485 0 0 0 0.0652299 
3475 2 8.02622 5.69078 3.33305 0 0 -1 0.121521 
724 1 4.10782 9.43058 3.89839 0 0 0 0.0455008 
1040 1 8.79742 5.97763 1.9094 0 0 1 0.046213 
412 1 0.154503 1.44557 4.18668 0 1 1 0.0852548 
1156 1 8.81823 5.69026 2.95828 0 0 0 0.0117282 
2468 1 0.434785 7.15925 2.80672 1 0 0 0.137625 
3347 1 1.01852 7.40702 1.94818 1 0 0 0.0375262 
2790 1 1.39666 6.73868 2.68608 1 0 -1 0.0280559 
273 1 1.45974 7.86385 2.82786 0 0 -1 0.16488 
3072 1 0.564778 8.04127 3.39462 1 0 0 0.262402 
3920 2 0.609757 7.99686 2.5422 1 0 0 0.587249 
564 1 2.5504 7.21566 2.9434 0 0 0 0.0396145 
770 1 2.02679 7.31879 2.0597 0 0 1 0.00734107 
4203 2 2.32231 8.11121 2.88423 0 0 0 0.0223775 
559 1 2.8861 7.97694 2.19265 0 0 0 0.0256329 
3827 2 2.96231 7.12676 2.1041 0 1 1 0.0169298 
3256 1 4.52786 6.65681 1.70211 1 0 0 0.017704 
3257 1 3.48865 6.54547 1.5917 1 0 0 0.00984583 
3741 2 4.7346 7.51031 1.72761 0 -1 2 0.114811 
2990 1 3.84241 7.48481 1.93794 1 0 0 0.00992958 
3855 2 3.97643 6.60882 2.29376 0 0 -1 0.0315732 
895 1 4.69962 7.32319 2.58375 0 0 1 0.0758748 
1530 1 3.60116 7.16687 2.90295 0 0 1 0.00934972 
3638 2 3.75514 8.02988 2.61834 0 0 0 0.00560889 
126 1 5.61469 7.84059 2.47808 0 0 0 0.00814635 
832 1 5.49625 7.03919 1.71852 0 0 0 0.0329874 
556 1 5.4384 6.63794 2.78453 0 0 0 0.0437409 
224 1 6.39534 6.55427 2.16492 0 0 0 0.0412723 
1602 1 6.55945 7.64228 1.99868 0 0 0 0.0190411 
1410 1 6.26483 7.2375 3.02084 0 0 0 0.0242588 
1068 1 7.27782 6.40642 1.64768 0 0 0 0.189486 
1160 1 7.19987 6.98131 2.5752 0 0 1 0.114092 
3953 2 7.97733 7.2261 2.37749 0 0 -2 0.075223 
1438 1 8.10028 6.44942 2.65441 0 0 0 0.065523 
2840 1 9.21509 7.31151 1.62156 0 0 0 0.119618 
1539 1 8.30407 6.8109 1.69134 0 0 0 0.104146 
1652 1 8.67704 7.63097 2.75838 0 0 1 0.0469226 
1388 1 9.19105 6.72001 2.60486 0 0 1 0.0366221 
431 1 0.460738 2.48632 4.80536 0 1 0 0.0198101 
3547 2 8.60532 6.84785 3.19369 -1 1 0 0.0575955 
2566 1 1.33955 9.1667 1.59934 1 0 0 0.0534381 
18 1 0.71897 8.32322 1.69905 0 0 0 0.0147774 
4174 2 0.523405 9.42405 2.99529 1 0 0 0.0409456 
742 1 1.07205 8.81279 2.60206 0 0 1 0.0107967 
938 1 0.626555 3.54244 4.78283 0 1 0 0.041869 
2532 1 0.74228 0.021024 3.74766 1 0 0 0.0213154 
136 1 1.91063 8.3466 2.07995 0 0 0 0.0179445 
3964 2 1.89413 9.2874 2.48292 0 0 0 0.0104672 
4284 2 2.76041 8.69353 1.75841 0 0 2 0.0100153 
2635 1 2.76116 8.99274 2.66214 1 0 0 0.0236266 
665 1 5.77993 8.2664 3.43743 0 0 1 0.0354134 
3973 2 4.81361 8.90207 1.67964 0 0 -1 0.0812027 
144 1 3.67494 8.6539 2.03332 0 0 0 0.00421115 
644 1 4.6088 8.33682 2.33155 0 0 1 0.00546208 
3269 1 3.89881 8.8211 3.06218 1 0 0 0.00476361 
3320 1 5.06408 9.44957 4.37594 1 0 0 0.0600405 
3815 2 5.02514 8.05992 3.07956 0 1 0 0.0707246 
307 1 5.43847 8.94244 2.27824 0 0 0 0.0458081 
3583 2 5.93222 8.99302 3.01361 -1 0 1 0.967705 
1016 1 7.29641 9.00829 2.13606 0 0 0 0.834468 
758 1 0.140651 4.89776 4.18284 0 0 0 0.0200444 
3947 2 3.25845 7.76114 4.64639 1 0 1 0.0796574 
1752 1 7.52427 8.03103 2.37512 0 0 0 0.220884 
1832 1 6.48884 8.42035 2.66898 0 0 0 0.86945 
1442 1 8.23765 8.93623 1.80619 0 0 0 0.140734 
4279 2 7.35222 8.64285 2.96308 1 0 0 0.280694 
1529 1 7.02081 7.87169 3.33064 0 0 0 0.367405 
2447 1 8.66111 8.21648 3.58991 0 0 0 0.0588155 
1134 1 8.31534 7.8546 1.81623 0 0 1 0.10315 
1717 1 9.64737 1.55379 4.5127 0 0 1 0.0126202 
1142 1 8.40029 8.69615 2.76115 0 0 1 0.18446 
626 1 1.35931 7.00764 0.287105 0 0 0 0.0443486 
751 1 9.36733 8.20757 2.10331 0 0 1 0.0527634 
4186 2 9.40605 1.2727 1.67592 0 1 1 0.129333 
107 1 1.40139 1.02874 4.08495 0 0 0 0.101108 
1218 1 0.151245 4.68508 1.49072 0 0 2 0.0380415 
70 1 1.73914 8.85053 0.10119 0 0 0 0.0218342 
3410 1 2.39385 1.11305 3.82408 1 1 0 0.0408476 
1644 1 9.08836 1.41026 0.0937195 0 0 1 0.0451045 
4194 2 4.36779 0.313705 3.64131 1 1 1 0.046537 
401 1 3.48279 0.858252 4.06478 0 1 0 0.0327671 
627 1 4.47975 0.833526 4.33731 0 0 0 0.0625181 
355 1 4.13405 1.75064 3.96078 0 1 0 0.0988851 
2717 1 0.106632 5.47274 0.101246 1 0 0 0.0712651 
2995 1 1.82932 8.70198 4.36071 1 0 0 0.00804977 
904 1 4.90158 1.16666 3.42603 0 1 2 0.0697148 
1140 1 3.17047 7.64843 0.200742 0 0 0 0.00427891 
4038 2 5.35742 0.38953 3.239 0 1 0 0.0596823 
201 1 2.45858 4.2914 0.227072 0 0 2 0.0898354 
3143 1 5.54135 0.832778 4.16061 1 0 0 0.0598622 
383 1 7.06955 0.457061 3.3867 0 1 1 0.0417517 
1805 1 7.66222 0.963048 4.2723 0 1 -1 0.0338192 
1326 1 6.63284 0.976369 4.25872 0 1 -1 0.0549465 
1304 1 7.19129 1.51773 3.49718 0 1 0 0.0430848 
3569 2 0.357014 6.30048 0.430275 0 0 2 0.0256919 
730 1 5.95586 9.40162 3.80116 0 0 1 0.0632735 
2177 1 8.17777 0.621502 3.36657 0 0 0 0.0182847 
2165 1 9.35427 9.21055 1.48443 0 0 1 0.103236 
1557 1 9.10825 1.23556 3.55279 0 0 0 0.0236603 
1227 1 8.71111 0.508834 4.28841 0 0 1 0.064953 
2861 1 9.46072 7.50687 3.41221 0 0 0 0.0177415 
518 1 1.62664 2.80702 4.58168 0 0 0 0.0127366 
3659 2 0.312414 2.10848 3.59316 1 1 -1 0.0498231 
814 1 1.10599 2.0641 4.00508 0 1 0 0.0485752 
2675 1 0.504275 2.9822 3.85718 1 0 1 0.0341233 
4184 2 2.40677 2.90974 3.48858 1 1 -1 0.126383 
2537 1 1.52813 2.90216 3.53885 1 0 -1 0.112763 
1396 1 1.91334 1.74381 4.68636 0 1 0 0.150093 
932 1 2.17941 2.09676 3.64253 0 1 1 0.111755 
3340 1 2.91063 2.6121 4.23199 1 1 0 0.0473784 
151 1 3.15531 1.75901 3.53687 0 0 0 0.0948919 
607 1 3.88079 2.56031 3.3552 0 0 0 0.0285911 
778 1 4.14697 2.89064 4.35772 0 1 0 0.142256 
1504 1 3.12473 1.68256 4.62489 0 1 0 0.0687213 
2024 1 5.28132 2.80987 4.50976 0 0 -1 0.0310507 
1736 1 4.86796 2.45815 3.60859 0 0 1 0.045388 
1721 1 5.71857 3.02017 3.47768 0 0 0 0.0139084 
909 1 5.67122 1.96689 3.92643 0 1 0 0.114709 
709 1 6.2845 3.1767 4.37762 0 0 0 0.00553797 
1878 1 6.84295 9.20521 3.24585 0 0 1 0.180029 
1566 1 6.85293 3.0433 3.37024 0 0 0 0.0172673 
3854 2 7.57424 2.02791 4.13246 1 0 -2 0.0308309 
215 1 6.72067 2.22805 4.02579 0 0 0 0.0785301 
2149 1 7.68369 2.88504 4.04186 0 0 0 0.0522527 
3797 2 7.47768 0.256746 0.941247 0 1 -1 0.0397551 
517 1 5.61655 8.53027 4.57723 0 0 0 0.0323444 
1916 1 8.21218 1.70455 3.63237 0 1 1 0.0492921 
4129 2 5.19752 0.427708 4.81335 0 0 0 0.0585201 
630 1 2.32729 9.59704 4.81924 0 0 0 0.0361235 
1624 1 8.54246 2.94856 3.35393 0 0 -1 0.00948095 
1349 1 7.0835 9.4491 4.35759 0 0 -1 0.0563806 
1678 1 9.20954 2.22811 3.7949 0 0 0 0.0215107 
3717 2 8.50204 2.57709 4.15917 0 1 1 0.00997517 
3554 2 3.50816 4.57695 4.68708 0 1 2 0.0239492 
3993 2 1.35281 3.54594 4.07374 0 0 1 0.0708711 
2733 1 0.668428 4.14666 3.90756 1 0 1 0.0644997 
198 1 2.27754 3.66579 4.00415 0 0 1 0.0617227 
1728 1 1.62061 4.3987 3.69188 1 0 1 0.0660655 
194 1 2.06554 4.86113 4.46389 0 0 1 0.0341148 
487 1 4.94489 8.98419 3.27846 0 0 0 0.0261953 
301 1 3.0272 4.45189 3.97472 0 1 0 0.0376209 
710 1 4.73313 8.35251 4.15264 0 0 0 0.0108991 
3044 1 8.54314 1.56382 4.58403 1 0 0 0.0725232 
3155 1 3.78686 4.28643 3.2361 1 0 1 0.188078 
1404 1 4.60078 3.48253 3.61713 0 1 1 0.0573598 
2569 1 3.30282 3.36251 3.60916 1 0 0 0.0504453 
2989 1 4.14834 4.18204 4.24445 1 0 0 0.0204165 
2380 1 4.49912 9.50874 0.193001 0 0 0 0.025299 
335 1 4.87329 4.75822 3.68043 0 1 -1 0.0616979 
2553 1 5.53959 3.87188 4.05732 0 0 -1 0.0141754 
1874 1 6.45176 3.96939 3.57196 0 1 0 0.0248078 
33 1 6.09613 4.69628 4.31803 0 0 -1 0.0227116 
2822 1 9.6875 8.58278 3.61751 0 0 0 0.0997149 
213 1 0.915801 4.60866 4.79454 0 0 0 0.0126258 
3814 2 8.90382 2.90679 0.151626 -1 0 2 0.0123178 
3864 2 7.0358 3.45153 4.06778 0 1 -1 0.0298437 
1532 1 7.17839 4.64783 3.82135 0 0 0 0.0111713 
1143 1 8.09494 3.93376 3.71388 0 0 1 0.00270187 
2399 1 4.19599 9.45984 1.33882 0 0 0 0.0312871 
1193 1 8.79312 3.38058 4.27795 0 0 1 0.00675362 
1554 1 3.07647 3.09766 0.217247 1 0 0 0.0109593 
3780 2 9.0186 3.82721 3.60607 0 0 2 0.00663562 
821 1 3.1105 8.05806 3.19889 0 0 0 0.00875702 
2528 1 8.85714 4.68776 3.5188 0 0 0 0.00420361 
774 1 4.52972 9.5224 2.37183 0 0 0 0.0116467 
4253 2 0.49295 5.42053 3.54125 1 0 0 0.0391074 
3839 2 1.20473 6.04324 4.46221 0 1 1 0.0477937 
2727 1 1.15625 5.2902 4.10567 1 0 0 0.0428084 
40 1 1.2345 6.24334 3.55965 0 0 0 0.0182929 
1694 1 6.39741 6.99595 0.159436 0 0 1 0.0162241 
4122 2 0.507262 6.64119 3.49178 1 -1 0 0.0839543 
3902 2 2.28443 5.08534 3.58559 1 0 1 0.0222749 
521 1 2.10216 5.80051 4.09203 0 0 0 0.0254209 
3640 2 3.08105 6.59505 3.35987 0 -1 1 0.114481 
221 1 2.84807 6.4361 4.38305 0 0 0 0.0406714 
1848 1 2.97389 5.29684 4.57157 0 1 -1 0.0366073 
1653 1 2.94863 5.54031 3.57767 0 0 0 0.0331912 
2357 1 8.84863 4.97362 0.241491 0 0 0 0.0676244 
3477 2 3.62085 5.83928 4.42867 0 -1 -2 0.0193091 
1392 1 3.8605 5.1811 3.79916 0 1 1 0.0267574 
3523 2 4.45391 5.80214 3.6645 0 0 1 0.113903 
1048 1 3.83306 6.39555 3.68175 0 0 0 0.0117599 
3141 1 5.22099 5.68839 3.25912 1 0 0 0.0376456 
1654 1 5.29352 5.5749 4.23909 0 0 0 0.0421725 
172 1 5.87796 4.84531 3.3243 0 0 0 0.0956858 
600 1 2.70466 8.92835 3.97211 0 0 0 0.0389324 
3600 2 8.05305 6.06819 4.58703 0 0 0 0.00503462 
4159 2 6.8227 6.21483 4.32752 0 0 0 0.112541 
1445 1 6.52854 5.63487 3.76979 0 0 1 0.0791963 
4100 2 6.8334 5.1998 4.48362 1 0 1 0.0213779 
2108 1 7.4442 5.6342 4.021 0 0 0 0.0663763 
3798 2 8.00167 4.86232 3.96849 0 1 -1 0.0359131 
3626 2 5.88123 1.80909 0.265871 0 0 0 0.0591952 
465 1 1.88168 8.80688 3.24179 0 0 0 0.0352031 
584 1 9.44714 1.4042 2.57151 0 0 0 0.0380418 
2037 1 8.59171 5.50026 4.03611 0 0 -1 0.0248981 
1876 1 8.08572 6.40825 3.74457 0 0 0 0.0750772 
3426 1 0.594185 8.14624 4.40759 1 0 0 0.172104 
3903 2 9.02881 0.50918 0.0760771 0 1 -1 0.0362268 
1422 1 6.1454 9.4219 4.81729 0 0 1 0.0331839 
2119 1 0.718019 6.71419 4.56844 1 -1 1 0.0321139 
466 1 1.09606 7.22341 3.6599 0 0 1 0.0565318 
4240 2 1.33763 8.22225 3.71517 1 -1 0 0.0747096 
2929 1 7.65672 8.69229 3.72215 0 0 1 0.0714023 
2556 1 2.17052 7.87964 3.74146 1 0 1 0.0703508 
434 1 2.06542 6.8476 3.81066 0 0 0 0.0230401 
666 1 3.2692 7.27615 3.93649 0 0 0 0.0191641 
1244 1 4.24964 7.88464 3.32555 0 0 0 0.00611829 
3006 1 8.6503 4.47104 4.60153 1 0 0 0.00858469 
534 1 4.34516 7.31653 4.20815 0 0 0 0.014418 
3763 2 4.46317 7.04978 3.35224 1 0 1 0.0254557 
4241 2 9.27219 9.16814 0.606477 0 0 1 0.075771 
430 1 5.23819 7.42037 3.52954 0 0 0 0.0223174 
1275 1 5.4411 7.54051 4.6123 0 0 0 0.0889682 
766 1 4.92907 6.50547 3.92689 0 0 0 0.0114554 
57 1 5.96998 6.47007 3.84683 0 0 0 0.0241933 
1988 1 6.25087 7.55598 3.97503 0 0 0 0.0621347 
1039 1 3.60403 8.34068 4.10203 0 0 1 0.017575 
4078 2 8.14447 1.30912 0.25281 0 1 0 0.0876702 
3041 1 7.08954 6.73604 3.68457 1 0 -1 0.0317878 
1705 1 7.52142 7.68308 4.26515 0 0 1 0.189926 
177 1 7.90065 7.39283 3.32891 0 0 0 0.0257907 
2685 1 9.17447 6.34167 3.64401 0 0 0 0.103793 
1453 1 8.71808 7.17388 4.1122 0 0 0 0.00993786 
3994 2 0.136167 4.27466 4.79598 1 0 0 0.0482445 
3071 1 6.58098 8.57242 4.06471 1 0 0 0.0327371 
4137 2 1.45625 9.4761 4.07248 1 1 1 0.0217777 
2169 1 0.847833 8.99432 3.64068 1 0 0 0.0875747 
2214 1 6.54413 6.84902 4.81914 0 0 1 0.0335193 
1503 1 7.15882 8.40118 0.0449258 0 0 0 0.0290908 
3612 2 6.16355 0.399127 4.7045 0 0 0 0.036481 
2736 1 0.0950962 3.7001 3.13031 1 0 0 0.0242929 
3304 1 2.4276 7.36228 4.68518 1 0 0 0.0775545 
1081 1 9.67135 7.50005 0.65566 0 0 1 0.089304 
1141 1 4.98609 4.64314 4.66467 0 0 0 0.027851 
3376 1 1.76238 6.56678 4.73735 1 1 -1 0.0509004 
648 1 7.8639 3.65385 4.70075 0 0 0 0.0115687 
1221 1 9.51861 5.29039 2.07459 0 0 1 0.0785304 
2711 1 2.24827 1.90082 0.087502 1 1 1 0.0487918 
1526 1 9.55799 8.47787 0.173981 0 0 1 0.0262999 
768 1 1.68545 3.92632 4.80513 0 1 0 0.012509 
1104 1 8.37004 2.19038 0.106959 0 0 0 0.0615226 
992 1 2.83888 0.0503618 3.98765 0 1 0 0.0495594 
1637 1 3.32963 2.15732 0.047051 0 0 1 0.0431497 
1305 1 6.12845 0.136772 3.62599 0 1 0 0.0596016 
2494 1 9.68153 4.19914 2.06575 0 0 0 0.0470526 
4236 2 0.11302 1.86159 2.63905 1 0 0 0.0312301 
580 1 5.52165 9.63116 0.225097 0 0 1 0.0533984 
3764 2 0.0970881 5.18025 2.22603 0 0 2 0.0604743 
43 1 4.60548 7.93514 0.0876352 0 0 0 0.00766947 
2937 1 1.33067 1.45579 0.0477969 1 1 0 0.0356669 
1667 1 9.10525 2.48414 4.76076 0 0 0 0.0203921 
3927 2 9.66441 2.01837 0.224198 -1 1 1 0.249347 
568 1 8.41672 7.99758 4.82528 0 0 -1 0.049688 
3024 1 0.80249 0.726083 5.80592 1 1 0 0.0500751 
3558 2 0.22444 1.29962 6.12626 1 0 1 0.0162962 
3861 2 2.55682 9.58917 7.74009 0 0 -1 0.101683 
3708 2 0.225234 3.70194 9.5851 0 1 1 0.047595 
3497 2 4.79652 1.46855 9.3656 0 0 2 0.0781961 
1276 1 1.8226 0.778945 6.1436 0 0 -1 0.0596233 
4300 2 1.61604 1.46772 5.66718 0 1 0 0.0384438 
2933 1 2.41453 1.42729 5.49312 0 1 0 0.0339644 
2319 1 2.98694 1.15968 9.62943 0 0 -1 0.0596187 
1764 1 2.93039 0.53062 5.93186 0 1 -1 0.0450411 
4273 2 4.14294 0.960039 5.778 1 1 0 0.0726585 
1720 1 3.65767 0.672172 5.10017 0 0 0 0.0815819 
578 1 3.5076 1.60893 5.84007 0 0 0 0.0347493 
3999 2 4.49593 8.7284 9.50418 0 0 0 0.00486105 
582 1 4.86686 0.947519 5.3998 0 0 0 0.0563449 
471 1 4.81396 0.395811 6.25462 0 1 1 0.0502842 
417 1 5.74362 1.04982 6.13935 0 1 0 0.00053147 
2048 1 5.91721 1.20493 5.07929 0 0 -1 0.0268701 
2100 1 8.04989 6.78971 9.41845 0 0 -1 0.0771254 
2201 1 6.78729 0.676987 5.26042 0 0 0 0.044367 
880 1 6.45395 0.379283 6.24986 0 1 0 0.0344671 
1710 1 7.93613 1.12438 5.35694 0 0 1 0.0204997 
2082 1 7.43231 0.0896616 5.90401 0 0 0 0.0869117 
286 1 7.34259 1.10164 6.27015 0 1 0 0.0196528 
1310 1 6.53641 1.57497 5.80626 0 1 0 0.0725469 
1036 1 9.01056 1.02016 5.29508 0 0 1 0.0328892 
1291 1 8.41869 0.707021 6.24442 0 1 0 0.0722526 
2780 1 9.28053 4.46043 9.00474 0 1 -1 0.0504109 
2493 1 9.27827 1.47003 6.41689 0 0 0 0.0112143 
3579 2 0.56675 0.594817 7.96341 0 0 0 0.0274083 
4048 2 0.948109 2.39902 5.52201 1 1 0 0.0181663 
141 1 0.956873 1.74602 6.13414 0 0 0 0.00903868 
1527 1 0.441975 3.07426 5.84557 1 0 -1 0.00830057 
154 1 1.42156 3.22611 5.5323 0 0 0 0.0150716 
3324 1 1.82841 2.33294 5.63198 1 1 0 0.0531205 
2074 1 5.92057 9.64519 8.57239 0 0 0 0.0145351 
1521 1 2.14334 3.17877 6.22907 0 0 0 0.0548997 
3488 2 9.54588 7.5135 8.8563 -1 0 -1 0.161177 
1131 1 2.81154 2.33283 6.13549 0 0 0 0.0413273 
1382 1 1.12498 7.94991 9.39382 0 0 0 0.0703924 
1069 1 4.5929 1.69428 6.08875 0 0 0 0.00864145 
248 1 4.51354 2.53248 5.34966 0 0 0 0.0904915 
83 1 3.82726 2.58509 6.18825 0 0 -1 0.0200571 
1425 1 3.45729 2.53707 5.20758 0 1 0 0.0385913 
3503 2 4.00542 3.30119 5.19853 0 0 1 0.0611034 
1801 1 4.94494 2.69638 6.33527 0 1 0 0.0627866 
3727 2 6.10238 2.0494 6.37094 0 1 -1 0.034958 
881 1 5.46653 3.01903 5.48836 0 1 1 0.106748 
2093 1 5.5483 1.9975 5.74429 0 0 0 0.0316855 
1082 1 6.48075 2.63843 5.8354 0 0 -1 0.0560933 
1117 1 7.43556 2.17149 5.78126 0 0 0 0.0868877 
323 1 0.0403523 1.1834 5.25891 0 1 0 0.0319195 
2097 1 8.66368 1.9879 5.68871 0 0 0 0.0314576 
3688 2 9.31169 2.6387 5.75118 0 0 2 0.0130546 
4301 2 8.16177 2.65349 5.93326 0 0 0 0.0860913 
941 1 0.74689 4.10151 5.70803 0 1 0 0.0379277 
3205 1 1.5078 0.162909 8.98167 1 0 0 0.153953 
1826 1 8.9527 8.20603 8.97394 0 0 -1 0.106113 
756 1 9.11048 9.44749 5.34425 0 0 1 0.0438669 
2729 1 0.571946 5.61371 5.03069 1 0 0 0.0191968 
3747 2 2.06235 3.7661 5.57365 0 0 0 0.0376224 
389 1 1.67508 4.62852 5.64423 0 1 0 0.0500372 
719 1 2.55183 4.32982 6.01571 0 0 1 0.0537941 
1321 1 1.53378 3.93717 6.38551 0 0 0 0.0434815 
1477 1 3.28206 3.5011 5.72956 0 1 0 0.0216471 
1137 1 7.30619 9.49362 5.40259 0 0 1 0.0269473 
1924 1 4.54935 3.48702 5.86401 0 0 0 0.0681244 
341 1 3.966 4.1845 5.29667 0 1 0 0.0574904 
4042 2 3.84828 3.66066 6.39798 0 1 1 0.0281412 
29 1 7.06933 5.12732 9.62646 0 0 -1 0.0658753 
1074 1 5.11489 4.61428 5.70095 0 0 0 0.0277131 
4088 2 5.96728 4.52868 5.90342 1 0 -1 0.0780518 
1136 1 5.79301 3.98229 5.14401 0 0 0 0.04609 
1565 1 5.56085 3.76507 6.20374 0 0 -2 0.0717217 
127 1 7.51095 3.31019 5.66546 0 0 0 0.0198084 
4117 2 6.34489 3.31837 5.20574 0 0 0 0.0742722 
1819 1 6.58436 3.83661 5.81642 0 0 0 0.0401369 