ITEM: TIMESTEP
33600
ITEM: NUMBER OF ATOMS
4320
ITEM: BOX BOUNDS xy xz yz pp pp pp 
0 19.4452 0.13517
0 19.31 0
0 9.655 0
ITEM: ATOMS id type x y z ix iy iz msd_nonAffine 
3378 1 1.01677 0.557771 0.341422 1 1 1 0.00822931 
486 1 1.50377 0.744885 1.23785 0 1 1 0.0112933 
580 1 5.50336 9.50858 0.300926 0 0 1 0.0160085 
332 1 0.92592 1.51061 0.833846 0 1 0 0.0190325 
964 1 2.0995 0.727467 0.289185 0 1 1 0.0560355 
2357 1 9.01292 4.95726 0.179657 0 0 0 0.0397984 
3697 2 1.87616 1.58069 0.799213 1 1 1 0.0307983 
135 1 2.8395 1.38563 0.945796 0 1 1 0.00881326 
1553 1 4.30071 0.744118 0.476357 0 0 0 0.0319257 
4065 2 3.67807 1.49746 0.494522 1 1 1 0.0264235 
1198 1 3.39365 0.449838 0.918488 0 0 1 0.059494 
868 1 3.87779 1.29188 1.46375 0 1 0 0.00426383 
3422 1 4.31632 0.271346 1.73717 1 1 0 0.0713105 
1493 1 4.94539 1.28808 1.2146 0 1 1 0.00562226 
4074 2 4.99979 0.484903 0.961353 0 1 1 0.0473862 
3203 1 5.32311 1.08008 0.287115 1 0 0 0.0222223 
1264 1 6.03086 1.39888 1.10049 0 1 0 0.0142205 
376 1 5.89534 0.332637 0.795589 0 1 0 0.0201201 
3758 2 6.23792 0.728313 1.69327 0 0 1 0.0613248 
663 1 6.89258 0.783378 1.0924 0 0 0 0.030501 
963 1 6.65556 1.33535 0.175861 0 1 1 0.0147723 
4222 2 6.47459 0.503622 0.151793 1 0 -1 0.0656909 
3797 2 7.63162 0.0939252 1.00984 0 1 -1 0.0416993 
3247 1 3.57092 0.108917 2.53676 1 1 0 0.124578 
2154 1 7.81892 0.896237 1.52801 0 0 1 0.0264208 
4078 2 8.20779 1.28068 0.16936 0 1 0 0.083362 
1783 1 9.41235 0.41884 0.952654 0 1 0 0.0347452 
1177 1 8.77775 1.38434 0.915005 0 0 1 0.00784586 
2805 1 8.34036 0.39395 0.705793 1 1 1 0.0226285 
3124 1 9.46828 3.10185 1.84505 0 0 1 0.006999 
3569 2 0.228105 6.31477 0.51494 0 0 2 0.0334218 
4241 2 9.27461 9.2107 0.621537 0 0 1 0.0528006 
2867 1 0.14073 8.58349 2.47379 1 0 0 0.032473 
2926 1 1.51253 2.43603 0.567418 1 1 1 0.00863268 
2794 1 0.352336 2.52814 0.952771 1 0 0 0.0221841 
3597 2 0.866265 3.1759 1.34331 0 1 0 0.0667382 
140 1 9.52659 4.1737 4.31107 0 0 1 0.0383495 
885 1 2.67583 2.4351 0.842547 0 1 1 0.0193001 
3991 2 9.4368 5.87211 4.28476 0 1 1 0.0714083 
512 1 1.83088 3.18737 1.12258 0 0 0 0.0165643 
3535 2 3.19986 3.00819 1.17764 0 1 0 0.0146077 
3626 2 5.95577 1.73172 0.187663 0 0 0 0.0246254 
3224 1 4.45679 1.91537 0.415515 1 1 0 0.0105734 
1822 1 3.64375 2.17859 0.978504 0 1 0 0.00825766 
1031 1 4.62101 2.6035 1.26583 0 0 0 0.0195148 
3604 2 3.95179 2.66193 0.135096 0 0 0 0.0368004 
4308 2 4.33809 1.93865 1.815 0 0 1 0.0586175 
640 1 4.91859 2.91323 0.334226 0 0 1 0.020579 
1704 1 5.9756 2.91813 0.238086 0 0 1 0.0160253 
3903 2 9.07629 0.469553 0.176447 0 1 -1 0.037223 
100 1 5.62351 3.12181 1.21156 0 0 0 0.00286914 
951 1 5.44085 2.10101 0.748498 0 1 1 0.0416061 
1055 1 7.66068 1.5591 0.750747 0 0 0 0.0248945 
3784 2 6.87093 1.70323 1.26167 0 0 -1 0.00643061 
629 1 6.53538 2.19994 0.655436 0 0 0 0.0239458 
1563 1 7.45999 2.5915 1.33445 0 0 0 0.0126552 
576 1 8.10807 3.12678 0.574761 0 0 0 0.0178084 
1632 1 8.22769 1.82746 1.71435 0 0 0 0.0322864 
3737 2 8.23379 2.34146 0.891429 1 1 0 0.0164171 
3175 1 9.11163 2.39991 0.835713 1 0 1 0.0246425 
1395 1 8.46534 2.80826 1.5678 0 1 1 0.0169907 
3840 2 9.54157 4.91486 2.87182 0 0 0 0.0838692 
790 1 2.46381 0.341406 1.43497 0 1 0 0.0139224 
3383 1 0.931096 3.33438 0.458885 1 0 1 0.0251004 
547 1 1.01779 4.03484 1.20328 0 0 1 0.0563772 
2997 1 0.30305 4.21567 0.394017 1 0 0 0.0203042 
72 1 1.51728 4.27974 0.327217 0 0 0 0.0462294 
2214 1 6.71144 6.8234 4.78227 0 0 1 0.00976275 
977 1 0.223003 6.00066 4.04076 0 1 1 0.00934644 
2007 1 1.90639 4.59756 1.22389 1 0 0 0.0101813 
738 1 9.6584 9.32586 2.55933 0 0 0 0.0186113 
3150 1 2.77455 3.80164 1.14118 1 0 0 0.00332365 
1485 1 4.04693 3.27682 0.775343 0 1 1 0.0134389 
380 1 4.68553 3.98703 0.252299 0 1 1 0.0298102 
34 1 3.70145 4.21942 0.661532 0 0 0 0.0157461 
1056 1 4.74569 3.85372 1.30888 0 0 0 0.0186849 
965 1 3.69809 3.78152 1.62219 0 0 1 0.00563913 
3915 2 5.35314 3.598 0.532012 0 1 1 0.0730374 
555 1 5.42916 4.55375 0.79376 0 0 0 0.0204913 
1214 1 6.23443 3.84187 0.739992 0 0 1 0.0408008 
910 1 5.72862 3.99929 1.79959 0 1 0 0.054993 
810 1 6.99077 3.21505 0.542259 0 1 1 0.0109282 
3976 2 4.11849 9.63227 3.11015 1 0 0 0.0126214 
981 1 7.17096 4.24908 0.298331 0 1 0 0.0238783 
3546 2 6.93321 4.03064 1.09641 0 0 1 0.0170577 
2081 1 7.6417 3.66731 1.34647 0 0 0 0.0106159 
2050 1 6.64445 3.38941 1.5476 0 0 0 0.0169612 
303 1 9.47073 2.46991 2.84373 0 1 0 0.0589288 
639 1 9.03475 3.42663 0.845457 0 0 0 0.00224357 
1153 1 9.3136 4.55032 1.11263 0 0 0 0.0264486 
1946 1 8.34679 4.2654 0.748513 0 1 0 0.0204691 
3094 1 1.02697 5.01962 0.813313 1 0 0 0.0330462 
2010 1 1.11231 6.03793 0.507906 1 0 0 0.00728654 
1235 1 0.241488 0.00294141 2.77374 1 0 1 0.00866874 
460 1 1.62231 0.0186939 4.34681 0 1 0 0.0220663 
2000 1 7.90527 9.46994 2.83853 0 0 0 0.100411 
4081 2 2.05919 6.11448 0.487336 1 1 0 0.0361338 
1976 1 1.85739 5.64173 1.1856 0 0 1 0.0461812 
2670 1 2.16654 5.2449 0.255541 1 0 1 0.051718 
1042 1 2.79165 6.07904 0.972189 0 0 1 0.0496128 
1233 1 2.88338 4.80451 0.925359 0 0 1 0.0364844 
1192 1 6.19361 5.73006 4.78368 0 0 1 0.0447673 
3059 1 3.73041 4.80647 1.49736 1 0 0 0.00958345 
2654 1 4.41541 4.96101 0.575593 1 0 1 0.00251982 
138 1 3.8092 5.74479 0.902011 0 0 1 0.0106139 
3671 2 3.57163 5.05172 0.306922 0 0 1 0.0111251 
3034 1 4.88208 5.83052 1.16002 1 0 0 0.0370488 
3971 2 5.6518 5.50014 0.813188 0 0 0 0.0325027 
146 1 6.55465 5.95637 0.636193 0 0 0 0.021924 
655 1 5.91696 6.10275 1.53714 0 0 0 0.00279833 
3694 2 9.17669 0.0979967 3.55452 0 1 1 0.0414739 
2653 1 7.50898 4.73287 1.1856 0 0 1 0.0298388 
537 1 6.48841 4.85599 0.971646 0 0 0 0.0174421 
80 1 7.51349 5.75198 1.05152 0 0 -1 0.0787224 
4073 2 8.26313 6.04109 1.45154 0 0 0 0.0682321 
3679 2 7.976 5.10979 0.566675 0 1 2 0.0282014 
3889 2 7.59064 9.54831 1.24443 0 -1 1 0.0191161 
1216 1 8.90938 9.51479 3.30373 0 0 0 0.0638694 
29 1 7.17273 5.31437 0.0690398 0 0 0 0.0107582 
2497 1 8.79452 5.73519 0.800964 0 0 0 0.0647916 
1215 1 8.47522 5.05001 1.48314 0 0 1 0.0227292 
23 1 7.72485 6.94827 4.52089 0 0 0 0.00290289 
3522 2 0.0637028 1.69974 0.759301 0 0 0 0.0517559 
1077 1 0.748335 6.85532 1.02782 0 0 0 0.00680453 
17 1 1.42625 7.71351 1.00591 0 0 1 0.0479783 
1554 1 3.11575 3.11722 0.148885 1 0 0 0.0200648 
2250 1 1.95625 6.73048 1.19104 1 0 0 0.0489158 
2303 1 2.22367 7.81999 0.353696 1 1 0 0.0181261 
3731 2 2.34051 7.92832 1.37059 0 0 0 0.00372431 
759 1 2.57053 6.86283 0.201499 0 0 1 0.0154484 
1830 1 2.88856 7.22632 1.3332 0 0 0 0.0447117 
1095 1 8.78105 6.31766 4.61366 0 0 0 0.0263067 
961 1 4.53059 6.53217 0.495583 0 1 1 0.0163729 
3878 2 3.30071 6.69767 0.704309 0 0 2 0.0134585 
543 1 3.88927 7.25355 0.938986 0 0 1 0.0162877 
1362 1 8.70314 8.83418 0.0914181 0 0 0 0.0537975 
985 1 5.56453 6.57976 0.669565 0 0 1 0.000676445 
270 1 4.9444 7.35961 1.02355 0 0 0 0.0104514 
1191 1 6.54609 7.85508 0.994846 0 0 0 0.0390021 
4287 2 5.82074 7.47343 1.18559 0 0 0 0.00751957 
2711 1 2.31458 1.87657 0.0628858 1 1 1 0.0293257 
1963 1 5.63792 7.73199 0.316601 0 0 1 0.0162638 
3539 2 7.16672 6.58259 0.473355 0 0 1 0.0154198 
1101 1 8.01207 6.61138 0.820706 0 0 1 0.0426187 
1364 1 7.38278 7.43661 0.363569 0 0 0 0.0137442 
1222 1 6.59703 6.89735 1.26816 0 0 0 0.0307887 
1980 1 7.62181 7.44449 1.52658 0 0 0 0.185093 
2380 1 4.51048 9.52367 0.261191 0 0 0 0.0134836 
2416 1 8.48152 7.55595 0.817821 0 0 1 0.0548336 
551 1 9.189 6.6951 0.739593 0 0 0 0.0603219 
201 1 2.63256 4.09725 0.0820793 0 0 2 0.0109806 
187 1 2.09985 3.19906 0.0622835 0 0 0 0.00786954 
646 1 0.959692 8.5716 0.631321 0 0 1 0.0576376 
3126 1 0.322086 9.2538 1.34249 1 0 1 0.0250653 
516 1 0.398752 7.23796 0.0939638 0 0 0 0.0407966 
121 1 2.08676 8.69406 1.06208 0 0 0 0.0513143 
2833 1 2.80445 8.68616 0.333379 1 0 1 0.00431605 
959 1 3.16211 8.18751 1.14763 0 0 0 0.0114902 
998 1 3.10381 9.24535 1.25102 0 0 1 0.0252617 
4236 2 0.201693 1.92701 2.53762 1 0 0 0.0103263 
645 1 4.28231 8.23074 1.17781 0 0 1 0.0330546 
203 1 3.8133 8.79098 0.484629 0 0 1 0.00694678 
3168 1 1.42301 7.45838 4.63028 1 0 0 0.0137158 
228 1 5.11371 9.41981 1.40841 0 0 0 0.00547346 
2263 1 5.07801 8.56123 0.589205 0 0 0 0.0617482 
1120 1 5.49231 8.19911 1.56392 0 0 0 0.00830329 
3064 1 6.13288 8.63616 0.412258 1 0 0 0.00742617 
204 1 6.14482 9.09437 1.50709 0 0 0 0.0312082 
1717 1 9.5636 1.48508 4.51705 0 0 1 0.0187468 
3629 2 7.48145 8.27183 1.69561 0 0 0 1.35148 
1613 1 7.07064 8.80508 1.17285 0 0 1 0.0375865 
2757 1 7.65847 9.31963 0.363531 0 0 0 0.0250877 
3412 1 1.94703 0.364485 3.36846 1 1 0 0.0187276 
2626 1 8.00291 8.53092 0.919861 0 0 0 0.125032 
1908 1 9.12259 8.42648 1.01163 0 0 0 0.0137068 
3309 1 0.276383 5.78212 1.28747 1 0 0 0.0570791 
2399 1 4.12131 9.62581 1.39681 0 0 0 0.0157737 
938 1 0.665441 3.48335 4.78036 0 1 0 0.0191355 
3028 1 0.15758 6.58996 1.9894 1 0 0 0.153923 
2551 1 0.643461 0.56574 1.88166 1 0 0 0.0295426 
3279 1 1.16125 0.598713 2.7725 1 1 0 0.00798057 
597 1 1.17688 1.46101 2.07878 0 0 0 0.0226363 
993 1 0.587773 1.39553 3.12932 0 1 0 0.00733977 
697 1 2.2708 9.48162 1.79059 0 0 0 0.0206521 
3814 2 9.01823 2.93186 0.103514 -1 0 2 0.0186602 
3011 1 2.15313 1.45984 1.64038 1 0 0 0.01025 
2595 1 2.09368 0.685958 2.28922 0 0 0 0.00275119 
2565 1 1.72106 1.38553 3.09027 1 0 0 0.00897465 
1262 1 2.6176 1.58808 2.62821 0 1 0 0.0485592 
950 1 3.08403 0.843216 2.04045 0 1 0 0.027085 
1238 1 2.89293 0.618079 3.07493 0 0 0 0.0975 
4130 2 4.00439 0.836168 2.2967 0 0 -1 0.0203765 
3430 1 4.74945 1.28327 2.20923 1 1 1 0.0108766 
3272 1 3.97996 0.930078 3.1455 1 1 0 0.0223444 
416 1 4.7875 0.300135 2.71029 0 1 1 0.0343129 
1875 1 5.40209 0.582933 1.75621 0 1 1 0.00881858 
3905 2 5.47153 0.95891 2.62025 1 1 0 0.01653 
2405 1 6.19238 1.4053 2.21595 0 1 0 0.0260348 
27 1 6.00624 0.270357 2.59673 0 1 0 0.045968 
2689 1 6.2579 1.02513 3.21429 1 0 0 0.0189012 
3459 2 6.9024 1.23058 2.71782 0 0 0 0.0191062 
1032 1 7.01181 0.579232 2.14558 0 0 0 0.0243149 
820 1 7.80434 1.16116 2.56205 0 1 0 0.0375812 
626 1 1.49615 6.99812 0.245957 0 0 0 0.013912 
1863 1 8.79802 0.930209 1.919 0 1 0 0.0320216 
1231 1 8.94014 0.331204 2.73057 0 0 1 0.0291417 
3639 2 8.63415 1.08307 2.82543 0 0 1 0.0332639 
2736 1 0.141917 3.80825 3.11385 1 0 0 0.0362527 
89 1 1.2699 2.33274 1.54758 0 0 -1 0.0174661 
1422 1 6.31585 9.55404 4.63497 0 0 1 0.0577265 
1234 1 0.332584 2.68055 1.96251 0 0 0 0.0221401 
2910 1 0.934902 2.36476 2.73012 1 0 1 0.0740872 
4068 2 0.738343 3.22237 2.74573 1 0 -1 0.0349923 
1647 1 1.41565 3.24717 2.09621 0 0 0 0.0218017 
946 1 7.45471 2.44627 0.0527873 0 1 1 0.0136774 
288 1 2.61771 3.14152 1.82357 0 1 0 0.0298292 
3586 2 2.1614 2.33096 1.48491 0 0 1 0.0485009 
636 1 2.00238 2.39576 2.2979 0 0 0 0.0604269 
3377 1 3.04473 2.77022 2.7449 1 1 1 0.00604723 
3319 1 3.02573 2.14249 1.79906 1 1 0 0.0187286 
3952 2 4.55281 1.62672 2.97909 1 1 0 0.0439044 
1123 1 3.76404 1.76128 2.53202 0 0 0 0.0100376 
538 1 3.77431 2.77417 1.89333 0 0 0 0.00163111 
610 1 4.64583 2.35227 2.50475 0 0 0 0.0156044 
4097 2 5.06903 2.97321 2.94468 0 0 1 0.0132271 
527 1 5.46978 2.06997 1.80279 0 0 0 0.00852755 
427 1 6.47121 2.3746 1.61033 0 1 0 0.00388848 
699 1 5.49682 1.80605 2.85925 0 0 1 0.0475638 
1026 1 5.97154 2.93666 2.34573 0 0 0 0.0192003 
354 1 7.20158 1.8129 2.00996 0 1 0 0.0205025 
4141 2 7.82036 2.47147 2.18159 0 2 0 0.0250117 
2060 1 6.5545 2.04669 2.94353 0 0 0 0.0437939 
753 1 7.08739 2.86667 2.33227 0 0 1 0.028409 
2422 1 7.68146 2.17971 2.97584 0 1 1 0.0934612 
1250 1 9.26212 1.99786 1.82136 0 1 0 0.0258838 
706 1 8.6273 1.97908 2.64239 0 0 0 0.0403693 
787 1 7.56551 4.64786 4.80973 0 0 0 0.019923 
3921 2 8.79386 2.83713 2.41626 0 1 -1 0.0491043 
1104 1 8.4471 2.14079 0.104869 0 0 0 0.0542292 
2532 1 0.663031 0.113738 3.80228 1 0 0 0.066326 
1294 1 0.463284 3.89473 2.07248 0 1 0 0.0957627 
589 1 0.595611 4.79906 2.81747 0 0 0 0.11209 
184 1 9.6655 3.17561 3.78764 -1 0 0 0.00892342 
402 1 1.24392 3.87773 3.01316 0 0 0 0.126383 
3556 2 2.03615 3.85903 1.68799 0 1 1 0.00265659 
613 1 2.22555 3.61485 2.71243 0 0 -1 0.0860909 
2897 1 1.54813 4.44253 2.22176 1 1 1 0.128199 
2002 1 2.51482 4.63951 3.03773 1 0 -1 0.00906126 
256 1 2.67229 4.44519 1.95899 0 0 0 0.0133045 
1433 1 4.17923 3.22435 2.74411 0 1 0 0.0134445 
3153 1 3.24453 3.88238 2.61462 1 0 1 0.00723835 
1288 1 4.34981 4.22934 2.27386 0 1 0 0.0287895 
1181 1 4.96501 3.21033 2.05913 0 0 0 0.0405102 
3295 1 5.221 3.83182 2.96238 1 1 0 0.00684603 
2213 1 5.28435 4.71049 2.43199 0 0 1 0.0574563 
2427 1 6.38868 3.86809 2.64092 0 1 0 0.016177 
4235 2 7.71686 3.10115 3.20885 1 0 -1 0.0321173 
649 1 6.76212 4.43775 1.87482 0 0 1 0.012474 
3508 2 7.21716 3.65394 2.08935 0 1 1 0.0197213 
1639 1 7.84703 4.41124 2.24101 0 0 0 0.0674962 
1277 1 7.37032 3.88804 3.02175 0 0 -1 0.0396655 
1536 1 8.05822 3.29468 2.43326 0 0 0 0.047406 
3869 2 8.35152 3.98171 3.03208 0 0 -1 0.0593865 
533 1 8.70474 3.8903 1.74321 0 0 0 0.00301653 
1158 1 9.06023 3.646 2.82797 0 0 0 0.00846848 
1035 1 8.78861 4.70027 2.41934 0 0 1 0.00901642 
1347 1 1.24955 6.31076 1.80661 0 1 -1 0.169441 
43 1 4.43511 7.79559 0.172509 0 0 0 0.0311065 
3095 1 0.982745 5.2352 1.98806 1 0 0 0.0748106 
829 1 0.544029 5.88621 2.61964 0 0 0 0.0384113 
3608 2 1.4025 5.90479 2.70491 0 0 0 0.113251 
119 1 1.64064 5.07282 3.29933 0 0 1 0.0999817 
118 1 1.97995 5.47033 2.15717 0 0 0 0.108574 
99 1 2.19397 6.02719 3.12728 0 0 0 0.0212094 
633 1 2.39144 6.36947 2.0048 0 0 0 0.0216847 
3532 2 2.72964 5.53797 2.64097 0 1 0 0.046322 
86 1 3.0059 5.54735 1.78305 0 0 0 0.0247554 
1004 1 3.44834 4.88564 2.59098 0 0 1 0.0180458 
1994 1 4.10785 5.6339 2.02993 0 0 0 0.0124004 
64 1 4.49833 5.13898 2.86694 0 0 -1 0.0137337 
875 1 3.18887 6.27235 2.68027 0 1 1 0.0261824 
157 1 4.47161 6.14355 2.87833 0 0 1 0.0230252 
3520 2 3.67821 5.63644 2.94596 0 0 0 0.0446008 
1139 1 4.75947 4.90864 1.57651 0 0 0 0.0333729 
3037 1 5.14987 5.76927 2.14648 1 0 0 0.0284984 
525 1 5.75888 5.12625 1.59746 0 0 0 0.0426532 
4053 2 6.0909 4.72015 2.34236 0 0 -1 0.0924567 
827 1 6.16258 5.54955 2.5751 0 0 0 0.0389157 
3575 2 6.35446 6.36304 3.09307 0 1 0 0.000468286 
1083 1 7.92817 4.84785 3.13268 0 0 0 0.0131989 
662 1 6.82168 5.48984 1.74591 0 0 1 0.038355 
635 1 6.86183 4.85557 2.86355 0 0 0 0.161713 
579 1 7.14755 5.8692 2.99961 0 0 0 0.168903 
1628 1 7.85567 5.47192 2.22933 0 0 0 0.0975448 
3475 2 7.99883 5.72609 3.2822 0 0 -1 0.0925517 
724 1 4.11377 9.3562 3.93091 0 0 0 0.02157 
1040 1 9.05113 5.86271 1.92894 0 0 1 0.0185409 
4233 2 3.49459 0.0863913 3.40163 1 1 1 0.0655016 
1156 1 8.83195 5.53551 3.00672 0 0 0 0.0513395 
2468 1 0.602873 7.06442 2.75237 1 0 0 0.133314 
3347 1 1.01841 7.28494 1.86776 1 0 0 0.0253409 
2790 1 1.61532 6.80268 2.74195 1 0 -1 0.0387639 
273 1 1.47564 7.82817 2.80716 0 0 -1 0.136013 
3072 1 0.536142 7.99681 3.24784 1 0 0 0.128931 
3920 2 0.701149 7.83243 2.40067 1 0 0 0.363829 
564 1 2.57723 7.16818 2.90392 0 0 0 0.0203604 
770 1 2.07956 7.37903 1.98341 0 0 1 0.0180471 
4203 2 2.35595 8.08314 2.84197 0 0 0 0.0158414 
559 1 2.92456 7.90369 2.12792 0 0 0 0.00369544 
3827 2 3.01575 6.98921 2.13868 0 1 1 0.00884504 
3256 1 4.59229 6.69498 1.70044 1 0 0 0.0204938 
3257 1 3.57672 6.44689 1.63571 1 0 0 0.0126535 
3741 2 4.85879 7.70149 1.80454 0 -1 2 0.0298491 
2990 1 3.90333 7.54596 1.93597 1 0 0 0.00811128 
3855 2 4.07959 6.69153 2.34406 0 0 -1 0.0185851 
895 1 4.63694 7.19078 2.63213 0 0 1 0.0268267 
1530 1 3.60281 7.10065 2.91863 0 0 1 0.00653825 
3638 2 3.66988 8.00054 2.64864 0 0 0 0.0137596 
126 1 5.58034 7.97285 2.60789 0 0 0 0.0256895 
832 1 5.5983 7.04304 1.88566 0 0 0 0.0166924 
556 1 5.57035 6.44321 2.79722 0 0 0 0.0515503 
224 1 6.51128 6.50646 2.24135 0 0 0 0.0399992 
1602 1 6.52195 7.6048 2.07259 0 0 0 0.0204933 
1410 1 6.2323 7.20215 3.0323 0 0 0 0.0293151 
1068 1 7.48094 6.39771 1.89872 0 0 0 0.118377 
1160 1 7.28442 7.04842 2.72189 0 0 1 0.0659724 
3953 2 8.14058 7.24179 2.28788 0 0 -2 0.0500385 
1438 1 8.16791 6.39201 2.68823 0 0 0 0.0883659 
2840 1 9.35202 7.41831 1.53709 0 0 0 0.0302258 
1539 1 8.55577 6.78525 1.68604 0 0 0 0.0774671 
1652 1 8.80515 7.62452 2.66325 0 0 1 0.0132359 
1388 1 9.27227 6.70698 2.52644 0 0 1 0.0168587 
1141 1 5.00584 4.55819 4.77942 0 0 0 0.01797 
3547 2 8.74143 6.96549 3.2195 -1 1 0 0.0083457 
2566 1 1.2803 9.20258 1.64481 1 0 0 0.0328502 
18 1 0.759699 8.32703 1.66335 0 0 0 0.0101256 
4174 2 0.409887 9.38538 3.00963 1 0 0 0.0303947 
742 1 1.13364 8.80961 2.60372 0 0 1 0.0134146 
333 1 2.62731 0.584306 4.72334 0 1 0 0.070437 
1353 1 0.549902 0.522094 4.74633 0 1 0 0.0553088 
136 1 2.0132 8.45943 2.11291 0 0 0 0.00385847 
3964 2 1.84575 9.39123 2.52323 0 0 0 0.0407413 
4284 2 2.75767 8.66469 1.74857 0 0 2 0.00686301 
2635 1 2.83423 8.88606 2.73825 1 0 0 0.01409 
665 1 5.81397 8.37547 3.57253 0 0 1 0.0221854 
3973 2 4.45949 8.8631 1.74641 0 0 -1 0.0245697 
144 1 3.61627 8.63906 2.07859 0 0 0 0.00776466 
644 1 4.5488 8.27053 2.38211 0 0 1 0.00375401 
3269 1 3.88869 8.84584 3.0492 1 0 0 0.00233459 
774 1 4.51352 9.50906 2.40083 0 0 0 0.0138121 
3815 2 4.91776 8.18658 3.20444 0 1 0 0.0348844 
307 1 5.3684 8.91929 2.40103 0 0 0 0.0135308 
3583 2 6.14265 8.67559 2.78746 -1 0 1 0.36338 
1016 1 6.31378 9.45938 2.54641 0 0 0 0.0550337 
431 1 0.355445 2.45972 4.67009 0 1 0 0.041107 
78 1 0.244079 1.66756 1.71014 0 0 0 0.0195956 
1752 1 7.6104 8.021 2.5424 0 0 0 0.0950293 
1832 1 6.84899 8.57841 2.19414 0 0 0 0.0865035 
1442 1 7.82093 9.00069 1.90493 0 0 0 0.0588149 
4279 2 7.17733 9.35931 2.34203 1 0 0 0.240956 
1529 1 6.7517 8.17209 3.13188 0 0 0 0.0379426 
2447 1 8.82911 8.16203 3.55408 0 0 0 0.0444 
1134 1 8.41552 8.0794 1.74461 0 0 1 0.0174644 
4223 2 8.75975 8.83299 1.72029 1 0 1 0.0247915 
1142 1 8.5923 8.69465 2.67747 0 0 1 0.0591485 
1089 1 6.83311 0.0341354 4.37141 0 0 0 0.0135341 
751 1 9.38181 8.32967 2.09501 0 0 1 0.0100945 
4186 2 9.46482 1.21796 1.53451 0 1 1 0.0643422 
107 1 1.30749 1.00622 4.0317 0 0 0 0.0657407 
412 1 0.216111 1.52966 4.09292 0 1 1 0.0855575 
1645 1 3.39802 3.41745 4.6077 0 0 0 0.0479546 
3410 1 2.41552 1.14778 3.87651 1 1 0 0.0449031 
169 1 5.13558 5.75163 0.0948598 0 0 0 0.0580713 
4194 2 4.38512 0.340842 3.62719 1 1 1 0.0360992 
401 1 3.47706 0.788048 4.03219 0 1 0 0.0311581 
627 1 4.45216 0.72767 4.4103 0 0 0 0.0419465 
355 1 4.23827 1.58841 3.90668 0 1 0 0.0272709 
1260 1 8.53741 9.31821 1.08836 0 0 0 0.166136 
2995 1 1.72605 8.56421 4.31323 1 0 0 0.00527656 
904 1 5.04017 1.06046 3.42998 0 1 2 0.0274171 
3947 2 3.39486 7.83922 4.69858 1 0 1 0.0670498 
4038 2 5.48938 0.326438 3.28206 0 1 0 0.0185597 
1252 1 7.46164 0.644959 0.211613 0 1 1 0.0543424 
3143 1 5.74033 0.715489 4.13593 1 0 0 0.0150236 
383 1 7.08969 0.348558 3.34011 0 1 1 0.0401894 
1805 1 7.69436 0.984572 4.41272 0 1 -1 0.0647722 
1326 1 6.6803 1.13831 4.30556 0 1 -1 0.0176827 
1304 1 7.27144 1.40586 3.44898 0 1 0 0.0324523 
3226 1 8.4973 8.98192 4.15052 1 0 0 0.301775 
730 1 5.98237 9.39577 3.58659 0 0 1 0.0102207 
2177 1 8.19836 0.630585 3.44205 0 0 0 0.0254407 
2165 1 9.54346 9.1759 1.55498 0 0 1 0.0371304 
1557 1 9.17597 0.970617 3.61366 0 0 0 0.0505396 
1227 1 8.70321 0.606891 4.48802 0 0 1 0.0421748 
3092 1 3.36903 9.25422 4.73042 1 0 0 0.00402847 
518 1 1.30364 2.71707 4.62597 0 0 0 0.0553011 
3659 2 0.292364 2.34489 3.52828 1 1 -1 0.12752 
814 1 1.12013 2.0965 3.78149 0 1 0 0.0756962 
2675 1 0.700117 3.06199 3.77449 1 0 1 0.0313061 
4184 2 2.5685 3.11949 3.34809 1 1 -1 0.104935 
2537 1 1.65155 2.93784 3.26604 1 0 -1 0.0971261 
1396 1 2.12984 1.99891 4.49032 0 1 0 0.0680811 
932 1 2.37421 2.2076 3.45247 0 1 1 0.0379576 
3340 1 3.10686 2.48007 4.2081 1 1 0 0.00485508 
151 1 3.25212 1.70026 3.4927 0 0 0 0.0343072 
607 1 3.95438 2.40913 3.30875 0 0 0 0.00362521 
778 1 4.19204 2.56625 4.39862 0 1 0 0.00482742 
185 1 5.07513 1.75176 4.52319 0 0 1 0.02461 
2024 1 5.39766 2.72701 4.42488 0 0 -1 0.0134903 
1736 1 4.92706 2.24282 3.59639 0 0 1 0.0141132 
1721 1 5.80017 2.94814 3.38754 0 0 0 0.00421889 
909 1 5.89626 1.89397 3.83386 0 1 0 0.0106581 
709 1 6.34806 3.0658 4.27346 0 0 0 0.0101201 
1878 1 6.9707 9.18647 3.21144 0 0 1 0.0861182 
1566 1 6.92216 2.97568 3.38091 0 0 0 0.0394943 
3854 2 7.74642 1.85635 4.33422 1 0 -2 0.116515 
215 1 6.90502 2.16412 4.04526 0 0 0 0.0396684 
2149 1 7.734 2.81904 4.02951 0 0 0 0.0612075 
540 1 4.76105 3.52581 4.7373 0 0 0 0.0110743 
517 1 5.79941 8.66584 4.53694 0 0 0 0.064914 
1916 1 8.29669 1.65785 3.65663 0 1 1 0.0619619 
1694 1 6.43513 6.95707 0.219325 0 0 1 0.0170007 
3554 2 3.36741 4.41666 4.72465 0 1 2 0.0498427 
1624 1 8.55306 2.83707 3.37541 0 0 -1 0.0229371 
2105 1 6.82028 3.94846 4.68394 0 0 0 0.0112923 
1678 1 9.24561 2.14246 3.78974 0 0 0 0.0197267 
3717 2 8.45818 2.40329 4.1784 0 1 1 0.0595301 
3320 1 5.18077 9.53662 4.25982 1 0 0 0.00503349 
3993 2 1.53094 3.46513 4.00847 0 0 1 0.00393789 
2733 1 1.07969 4.1975 4.05564 1 0 1 0.114451 
198 1 2.26734 3.07714 4.12795 0 0 1 0.246521 
1728 1 2.07562 4.07082 3.77212 1 0 1 0.170947 
194 1 1.83876 4.71203 4.60972 0 0 1 0.111686 
487 1 5.01634 9.09751 3.32448 0 0 0 0.0203376 
301 1 3.08338 4.32948 3.92493 0 1 0 0.0117225 
710 1 4.84028 8.36848 4.06094 0 0 0 0.0324764 
1839 1 7.43664 8.46953 4.76336 0 0 -1 0.044601 
3155 1 4.09482 4.15956 3.22397 1 0 1 0.0174273 
1404 1 4.65715 3.21848 3.73949 0 1 1 0.0190687 
2569 1 3.43138 3.3016 3.57737 1 0 0 0.0233525 
2989 1 4.11242 4.12488 4.25784 1 0 0 0.0298681 
2302 1 9.39115 5.14139 4.65026 0 0 0 0.0593913 
335 1 4.92665 4.5985 3.70737 0 1 -1 0.0652615 
2553 1 5.59046 3.7701 4.08767 0 0 -1 0.0490187 
1874 1 6.48064 3.86914 3.64591 0 1 0 0.0174619 
33 1 6.02887 4.7612 4.28739 0 0 -1 0.0373175 
979 1 0.0999195 0.834388 0.92372 0 1 0 0.0206263 
630 1 2.31797 9.42536 4.62581 0 0 0 0.0709429 
3304 1 2.45831 7.43553 4.7294 1 0 0 0.0423098 
3864 2 7.18534 3.49611 4.03163 0 1 -1 0.00564145 
1532 1 7.09721 4.619 3.86167 0 0 0 0.0108492 
1143 1 8.01459 3.88752 3.86372 0 0 1 0.0457137 
1140 1 3.32227 7.61088 0.18709 0 0 0 0.0581621 
1193 1 8.76661 3.27418 4.4256 0 0 1 0.042602 
3006 1 8.57982 4.43198 4.6121 1 0 0 0.024017 
3780 2 9.00094 3.81954 3.75087 0 0 2 0.0387636 
821 1 3.10078 7.97202 3.26832 0 0 0 0.0216463 
2528 1 8.85495 4.56626 3.44766 0 0 0 0.0305357 
3493 2 6.31429 4.50892 0.185415 0 0 -1 0.0763353 
4253 2 0.581962 5.49653 3.38292 1 0 0 0.0416035 
3839 2 1.12553 6.1099 4.53308 0 1 1 0.0881132 
2727 1 1.09594 5.39238 4.15125 1 0 0 0.0963393 
40 1 1.1308 6.18896 3.462 0 0 0 0.0252771 
519 1 6.5953 9.5942 0.563983 0 0 0 0.0445773 
4122 2 0.490734 6.76449 3.67889 1 -1 0 0.232689 
3902 2 2.34223 4.9026 3.84286 1 0 1 0.0421691 
521 1 2.04364 5.68869 4.15063 0 0 0 0.0196537 
3640 2 2.97107 6.48704 3.4782 0 -1 1 0.0321776 
221 1 2.94932 6.3314 4.31298 0 0 0 0.0216595 
1848 1 2.87235 5.08125 4.59593 0 1 -1 0.0489079 
1653 1 2.91599 5.49098 3.54383 0 0 0 0.030101 
768 1 1.68577 3.69916 4.78708 0 1 0 0.0153401 
3477 2 3.54639 5.69283 4.29588 0 -1 -2 0.0274226 
1392 1 3.81952 5.06834 3.69778 0 1 1 0.0318137 
3523 2 4.53507 5.58025 3.6241 0 0 1 0.0887437 
1048 1 3.75281 6.20918 3.63506 0 0 0 0.0139196 
3141 1 5.38237 5.57975 3.29231 1 0 0 0.0139018 
1654 1 5.20994 5.45228 4.30974 0 0 0 0.0810186 
172 1 5.89831 4.63711 3.18471 0 0 0 0.147105 
600 1 2.7477 8.8397 3.87885 0 0 0 0.00881227 
3600 2 7.93194 6.08303 4.55708 0 0 0 0.0221933 
4159 2 6.77877 6.10117 4.25317 0 0 0 0.129599 
1445 1 6.35991 5.53304 3.61904 0 0 1 0.132601 
4100 2 6.9028 5.17948 4.47827 1 0 1 0.0028821 
2108 1 7.45344 5.59968 3.99861 0 0 0 0.047707 
3798 2 7.92652 4.7553 4.01705 0 1 -1 0.0708147 
758 1 0.190502 4.8749 3.8822 0 0 0 0.100068 
465 1 1.88174 8.72567 3.25067 0 0 0 0.0177469 
3526 2 9.37506 8.516 2.9624 -1 0 0 0.0275181 
2037 1 8.48372 5.40749 3.99549 0 0 -1 0.0714469 
1876 1 8.13761 6.41212 3.7406 0 0 0 0.0360916 
3426 1 0.536387 7.94026 4.27966 1 0 0 0.0451157 
3044 1 8.48023 1.6022 4.66474 1 0 0 0.0809906 
571 1 1.2325 9.5648 0.646571 0 0 1 0.0068838 
2119 1 0.599173 6.80797 4.54336 1 -1 1 0.0940584 
466 1 1.21052 7.28798 3.63398 0 0 1 0.154325 
4240 2 1.33712 8.07819 3.65653 1 -1 0 0.0467654 
2929 1 7.81718 8.56126 3.44927 0 0 1 0.071597 
2556 1 2.24189 7.83651 3.78911 1 0 1 0.0195641 
434 1 2.0817 6.81669 3.83811 0 0 0 0.0368443 
666 1 3.37529 7.33987 4.02328 0 0 0 0.0846868 
1244 1 4.2097 7.79255 3.31187 0 0 0 0.00047423 
3912 2 9.56024 3.2531 4.65557 0 1 0 0.0132132 
534 1 4.39989 7.13949 4.23213 0 0 0 0.063178 
3763 2 4.30549 6.84102 3.39418 1 0 1 0.0178917 
1349 1 7.57341 9.41093 4.14323 0 0 -1 0.247228 
430 1 5.21413 7.35261 3.51249 0 0 0 0.0461578 
1275 1 5.37602 7.54174 4.51351 0 0 0 0.0777674 
766 1 4.94457 6.39001 3.75721 0 0 0 0.0613204 
57 1 6.02246 6.44236 3.8939 0 0 0 0.0155163 
1988 1 6.26364 7.45649 4.02322 0 0 0 0.0721383 
1039 1 3.66821 8.40781 4.07315 0 0 1 0.00335991 
584 1 9.50249 1.3459 2.59784 0 0 0 0.0690588 
3041 1 7.08639 6.73893 3.7222 1 0 -1 0.0395713 
1705 1 7.31831 7.84092 4.02385 0 0 1 0.0598985 
177 1 8.08463 7.44089 3.37932 0 0 0 0.0121461 
2685 1 9.22468 6.32892 3.55025 0 0 0 0.0559927 
1453 1 8.80328 7.19659 4.13184 0 0 0 0.0220674 
2861 1 9.56277 7.31401 3.36467 0 0 0 0.0794619 
3071 1 6.75053 8.76932 4.07029 1 0 0 0.0353678 
4137 2 1.48283 9.4491 4.36693 1 1 1 0.184924 
2169 1 0.90027 8.87128 3.70092 1 0 0 0.0314501 
4129 2 5.30397 0.340319 4.77414 0 0 0 0.0134114 
1504 1 3.12919 1.50779 4.74712 0 1 0 0.0526739 
2644 1 0.890786 8.94956 4.7745 1 0 1 0.0264943 
206 1 6.05227 5.30072 0.0610137 0 0 1 0.00889874 
1218 1 0.194465 4.70612 1.38222 0 0 2 0.0697999 
1813 1 8.12562 5.82947 0.0378576 0 0 1 0.00764515 
3107 1 3.08797 5.72867 0.0770402 1 0 1 0.0175706 
718 1 4.32966 6.05122 4.62175 0 0 0 0.00833354 
12 1 0.209895 7.82174 0.91279 0 0 0 0.0335682 
1626 1 9.68094 5.85738 0.00855863 0 0 0 0.10995 
70 1 1.8188 8.79213 0.0432182 0 0 0 0.0169483 
2717 1 0.203841 5.52749 0.12192 1 0 0 0.0579182 
568 1 8.35576 8.01026 4.54791 0 0 -1 0.0165591 
1722 1 7.86975 0.0694939 2.5877 0 0 1 0.0472049 
1503 1 7.198 8.45402 0.0192895 0 0 0 0.0215184 
3764 2 0.168298 5.33047 2.10204 0 0 2 0.115705 
2004 1 0.125526 0.174534 0.0671581 1 0 1 0.0322892 
2822 1 9.68993 8.82419 3.8613 0 0 0 0.0343614 
222 1 2.77354 8.39676 4.80969 0 0 0 0.0358009 
305 1 0.0397149 3.57257 1.18945 0 1 -1 0.0937424 
632 1 4.03093 5.01085 4.73458 0 0 0 0.0567167 
3871 2 6.5079 7.81916 0.0393688 0 0 0 0.00611699 
900 1 6.59289 7.91434 4.82747 0 1 0 0.0225737 
1526 1 9.62658 8.37477 0.041425 0 0 1 0.0219885 
2599 1 0.354459 1.25332 0.00124186 1 0 0 0.0163556 
3376 1 1.94121 6.51448 4.81371 1 1 -1 0.00439593 
648 1 7.81688 3.61627 4.82654 0 0 0 0.038813 
3024 1 0.783977 0.929831 5.65994 1 1 0 0.108507 
3558 2 0.161433 1.3255 5.998 1 0 1 0.0353798 
2731 1 0.16107 4.51926 7.28085 1 0 0 0.0181397 
1869 1 5.62573 0.171401 5.59019 0 1 0 0.0488251 
1954 1 9.36606 0.114817 5.232 0 0 0 0.0188269 
1276 1 1.7192 0.630635 6.1299 0 0 -1 0.102236 
4300 2 1.51827 1.45086 5.58869 0 1 0 0.0743782 
2933 1 2.37392 1.29933 5.48753 0 1 0 0.0520994 
3090 1 2.54787 9.53882 6.78769 1 0 0 0.00797946 
1764 1 2.90567 0.563892 5.92086 0 1 -1 0.0588904 
4273 2 4.21293 0.91709 5.89724 1 1 0 0.0276633 
1720 1 3.64045 0.644161 5.18612 0 0 0 0.0950293 
578 1 3.3712 1.48603 5.88932 0 0 0 0.0784718 
3999 2 4.44714 8.62637 9.55275 0 0 0 0.0197555 
582 1 4.9166 0.930824 5.28398 0 0 0 0.0368161 
471 1 4.81541 0.376931 6.27315 0 1 1 0.0485599 
417 1 5.58382 1.13891 6.12748 0 1 0 0.0342579 
2048 1 5.95767 1.19581 5.08885 0 0 -1 0.01379 
2052 1 2.61814 0.0410239 9.23837 1 0 0 0.0255141 
2201 1 6.92776 0.814731 5.28688 0 0 0 0.0141068 
880 1 6.4539 0.411243 6.29352 0 1 0 0.0451724 
1710 1 7.91028 1.23829 5.50956 0 0 1 0.0773064 
1821 1 9.44705 9.35493 9.20815 0 0 -1 0.125335 
286 1 7.28233 1.05195 6.41758 0 1 0 0.0391483 
1310 1 6.49999 1.62989 5.86079 0 1 0 0.0991811 
1036 1 9.01242 1.0881 5.45305 0 0 1 0.0552325 
1291 1 8.48077 0.772803 6.32336 0 1 0 0.086736 
918 1 3.8539 0.110904 6.10622 0 1 0 0.030165 
2493 1 9.31529 1.47162 6.47373 0 0 0 0.0130445 
2256 1 9.65178 7.38022 6.03661 0 0 0 0.0262407 
4048 2 0.945004 2.47893 5.37815 1 1 0 0.0147449 
141 1 0.93449 1.86792 6.05721 0 0 0 0.00846048 
1527 1 0.361244 3.04551 5.70474 1 0 -1 0.0430209 
154 1 1.345 3.15514 5.71819 0 0 0 0.0331504 
3324 1 1.82017 2.23173 5.4539 1 1 0 0.024292 
1688 1 7.6874 0.0490355 8.77203 0 0 0 0.00352553 
1521 1 2.32868 3.2454 6.20994 0 0 0 0.0584758 
3488 2 9.64168 7.49956 8.84491 -1 0 -1 0.159319 
1131 1 2.68711 2.30552 5.9972 0 0 0 0.0540726 
4054 2 6.66211 8.83205 4.98729 1 0 0 0.043791 
1069 1 4.48242 1.71144 5.96432 0 0 0 0.0342879 
248 1 4.69147 2.52619 5.32204 0 0 0 0.0146226 
83 1 3.9941 2.67835 6.10822 0 0 -1 0.0198869 
1425 1 3.5191 2.49776 5.19097 0 1 0 0.0149097 
3503 2 4.05078 3.14992 5.18423 0 0 1 0.0322362 
1801 1 5.10621 2.60626 6.27853 0 1 0 0.00788435 
3727 2 5.93315 2.23859 6.28582 0 1 -1 0.181291 
881 1 5.59299 3.02031 5.46515 0 1 1 0.0399876 
2093 1 5.52963 1.99579 5.5859 0 0 0 0.0275461 
1082 1 6.6509 2.72912 5.78365 0 0 -1 0.0116097 
1117 1 7.60888 2.20394 5.97092 0 0 0 0.0691481 
3039 1 0.238711 5.10862 8.1058 1 0 -1 0.0252798 
2097 1 8.63417 2.03279 5.73794 0 0 0 0.0504955 
3688 2 9.23859 2.5916 5.88914 0 0 2 0.069697 
4301 2 8.29708 2.72554 6.13956 0 0 0 0.0832021 
941 1 0.760119 4.03493 5.74017 0 1 0 0.0168946 
621 1 6.56598 3.71833 9.43032 0 0 0 0.00627192 
1826 1 8.92745 8.02948 8.72331 0 0 -1 0.28451 
3003 1 1.11668 9.50578 8.227 1 0 -1 0.00410473 
558 1 4.20168 7.8749 4.9385 0 0 0 0.0212973 
3747 2 1.93477 3.82414 5.55206 0 0 0 0.0864014 
389 1 1.61243 4.6603 5.61701 0 1 0 0.0715324 
719 1 2.54703 4.21498 5.98177 0 0 1 0.0305969 
1321 1 1.57185 3.99538 6.42244 0 0 0 0.0391582 
1477 1 3.22956 3.44846 5.69463 0 1 0 0.00878169 
3724 2 8.39567 7.2374 4.98814 0 0 0 0.00766208 
1924 1 4.73536 3.49001 5.78383 0 0 0 0.0210048 
341 1 4.03192 4.14733 5.35585 0 1 0 0.0189982 
4042 2 3.93352 3.69326 6.15462 0 1 1 0.0492456 
439 1 3.72772 9.63723 5.75984 0 0 -1 0.0312856 
1074 1 5.13087 4.5847 5.82674 0 0 0 0.0230835 
4088 2 6.03961 4.47483 5.98179 1 0 -1 0.0869163 
1136 1 5.83824 3.96992 5.11442 0 0 0 0.0244195 
1565 1 5.58881 3.79453 6.33136 0 0 -2 0.0782676 