ITEM: TIMESTEP
48000
ITEM: NUMBER OF ATOMS
4320
ITEM: BOX BOUNDS xy xz yz pp pp pp 
0 19.5031 0.1931
0 19.31 0
0 9.655 0
ITEM: ATOMS id type x y z ix iy iz msd_nonAffine 
3378 1 1.10125 0.449111 0.282061 1 1 1 0.0138742 
486 1 1.55771 0.766818 1.3066 0 1 1 0.010047 
705 1 9.64672 4.11319 0.12139 0 0 0 0.0184738 
332 1 0.904315 1.55729 1.04364 0 1 0 0.0510988 
964 1 2.11309 0.746848 0.271203 0 1 1 0.0593649 
3028 1 0.126759 6.72385 1.95223 1 0 0 0.115749 
3697 2 1.80347 1.52611 0.750434 1 1 1 0.0349212 
135 1 2.75936 1.30445 0.921208 0 1 1 0.0225065 
1553 1 4.38831 0.605035 0.492075 0 0 0 0.00495888 
4065 2 3.65122 1.28066 0.455487 1 1 1 0.0242984 
1198 1 3.39967 0.457404 0.753502 0 0 1 0.0143333 
868 1 3.75504 1.26514 1.37186 0 1 0 0.0161533 
3422 1 4.28455 0.294794 1.56075 1 1 0 0.0326998 
1493 1 4.76982 1.34102 1.22198 0 1 1 0.0252858 
4074 2 5.06944 0.579089 0.96181 0 1 1 0.0265742 
3203 1 5.26419 1.17204 0.36015 1 0 0 0.050537 
1264 1 5.95059 1.45568 1.11452 0 1 0 0.046682 
376 1 5.9104 0.429552 0.812208 0 1 0 0.0387989 
3758 2 6.16425 0.7064 1.56771 0 0 1 0.0572186 
663 1 6.82615 0.780814 1.03442 0 0 0 0.0396183 
963 1 6.4766 1.33969 0.145748 0 1 1 0.0692544 
4222 2 6.6601 0.473061 0.231575 1 0 -1 0.0088366 
3903 2 8.9756 0.3681 0.062985 0 1 -1 0.0193862 
3694 2 8.9145 0.243534 3.6016 0 1 1 0.0637254 
2154 1 7.73905 0.841095 1.52849 0 0 1 0.0566247 
4078 2 8.23003 1.16174 0.290668 0 1 0 0.0622782 
1783 1 9.42212 0.527119 1.01411 0 1 0 0.0135893 
1177 1 8.70285 1.53212 0.955847 0 0 1 0.0276609 
2805 1 8.4524 0.418858 0.721171 1 1 1 0.0161484 
3124 1 9.37238 3.16592 1.88611 0 0 1 0.00947507 
3991 2 9.63301 6.02446 4.23649 0 1 1 0.0123679 
1626 1 9.49472 5.91024 0.106686 0 0 0 0.0440796 
1089 1 6.95565 0.163876 4.40491 0 0 0 0.0279162 
2926 1 1.49192 2.34626 0.614124 1 1 1 0.00748958 
2794 1 0.420456 2.50949 0.906725 1 0 0 0.0222679 
3597 2 0.837627 3.18828 1.40699 0 1 0 0.0808307 
3304 1 2.44742 7.38754 4.70045 1 0 0 0.0575626 
885 1 2.49902 2.49268 0.759627 0 1 1 0.0733018 
2711 1 2.29647 1.80294 0.0673106 1 1 1 0.0286024 
512 1 1.8023 3.21221 1.16945 0 0 0 0.00597316 
3535 2 3.13088 2.97823 1.12757 0 1 0 0.0364146 
2357 1 8.94175 4.93667 0.204445 0 0 0 0.0538563 
3224 1 4.38402 1.78095 0.350456 1 1 0 0.0550625 
1822 1 3.55437 2.13698 0.944806 0 1 0 0.0345957 
1031 1 4.49277 2.4468 1.29082 0 0 0 0.109752 
3604 2 4.0251 2.53689 0.294767 0 0 0 0.00247851 
4308 2 3.99282 1.91458 1.80164 0 0 1 0.209187 
640 1 4.74952 3.07575 0.325814 0 0 1 0.0816734 
1704 1 5.8451 3.16576 0.240626 0 0 1 0.0493821 
3626 2 5.856 1.87757 0.191243 0 0 0 0.052578 
100 1 5.4104 3.12688 1.21071 0 0 0 0.0755949 
951 1 5.31469 2.20646 0.736184 0 1 1 0.0887435 
1055 1 7.53399 1.51446 0.711169 0 0 0 0.0241771 
3784 2 6.86397 1.80652 1.16998 0 0 -1 0.026791 
629 1 6.43023 2.3936 0.582214 0 0 0 0.063275 
1563 1 7.34023 2.57422 1.33213 0 0 0 0.0305329 
576 1 8.10772 3.09734 0.586571 0 0 0 0.0240846 
1632 1 8.05899 1.83908 1.63912 0 0 0 0.0137733 
3737 2 8.16661 2.26136 0.891945 1 1 0 0.0289737 
3175 1 9.00324 2.5079 0.73479 1 0 1 0.0586897 
1395 1 8.35072 2.86633 1.63643 0 1 1 0.0450064 
516 1 0.356104 7.22591 0.0949964 0 0 0 0.0577818 
790 1 2.39833 0.233896 1.24369 0 1 0 0.0309661 
3383 1 0.849506 3.40855 0.472609 1 0 1 0.0459752 
547 1 1.03862 4.01606 1.36897 0 0 1 0.0163765 
2997 1 0.31413 4.28584 0.459506 1 0 0 0.0136884 
72 1 1.47946 4.33951 0.403834 0 0 0 0.0649592 
3412 1 1.90725 0.365224 3.20655 1 1 0 0.0359476 
3309 1 0.277485 5.67305 1.46268 1 0 0 0.117008 
2007 1 1.94337 4.58287 1.27227 1 0 0 0.00570522 
2736 1 0.192882 3.86724 3.23071 1 0 0 0.0459126 
3150 1 2.7265 3.79613 1.02397 1 0 0 0.0142684 
1485 1 3.85996 3.14009 0.846086 0 1 1 0.0285597 
380 1 4.5529 4.09039 0.118922 0 1 1 0.0266068 
34 1 3.57143 4.10353 0.50472 0 0 0 0.0214092 
1056 1 4.51685 4.00211 1.1814 0 0 0 0.0480975 
965 1 3.5752 3.7328 1.6637 0 0 1 0.0337005 
3915 2 5.27184 3.79795 0.564836 0 1 1 0.0605205 
555 1 5.39796 4.79218 0.75309 0 0 0 0.0153606 
1214 1 6.09804 4.06288 0.85412 0 0 1 0.0751899 
910 1 5.45543 4.07328 1.66319 0 1 0 0.0798335 
810 1 7.06862 3.33341 0.63063 0 1 1 0.00748367 
460 1 1.73365 0.113846 4.28685 0 1 0 0.050916 
981 1 7.27843 4.50315 0.31149 0 1 0 0.0666048 
3546 2 7.05843 4.07414 0.996775 0 0 1 0.0133927 
2081 1 7.60473 3.62601 1.50328 0 0 0 0.0355354 
2050 1 6.48867 3.42765 1.56003 0 0 0 0.011057 
303 1 9.42236 2.63039 2.74843 0 1 0 0.0136926 
639 1 8.99469 3.60604 0.890109 0 0 0 0.0274844 
1153 1 9.37374 4.54468 1.05225 0 0 0 0.0167588 
1946 1 8.24019 4.26305 0.630295 0 1 0 0.0387975 
3094 1 0.884712 5.00454 0.976155 1 0 0 0.0467259 
2010 1 1.14487 6.03711 0.509563 1 0 0 0.0076852 
2451 1 9.06667 8.9429 4.42428 0 0 1 0.00672439 
738 1 9.51606 9.21734 2.44036 0 0 0 0.125362 
431 1 0.359216 2.50443 4.72192 0 1 0 0.0456968 
4081 2 2.03752 6.21187 0.380333 1 1 0 0.0536622 
1976 1 1.71668 5.57794 1.26216 0 0 1 0.0255431 
2670 1 1.90822 5.37166 0.140522 1 0 1 0.0806899 
1042 1 2.54962 6.08001 1.06359 0 0 1 0.0146469 
1233 1 2.79104 4.98755 0.83869 0 0 1 0.0215153 
1717 1 9.65319 1.45548 4.40085 0 0 1 0.0463731 
3059 1 3.59509 4.77142 1.47869 1 0 0 0.057079 
2654 1 4.30886 4.95464 0.601319 1 0 1 0.00680749 
138 1 3.65069 5.74716 0.96834 0 0 1 0.0315339 
3671 2 3.48716 5.12352 0.276421 0 0 1 0.0219762 
3034 1 5.02322 5.8357 1.00152 1 0 0 0.0049284 
3971 2 5.94258 5.5893 0.925345 0 0 0 0.0216776 
146 1 6.38355 6.17292 0.399729 0 0 0 0.0549589 
655 1 5.97283 6.24527 1.46847 0 0 0 0.0207434 
977 1 0.302296 5.96555 4.11314 0 1 1 0.013837 
2653 1 7.54111 4.91962 1.21114 0 0 1 0.0128385 
537 1 6.45274 4.96839 0.695213 0 0 0 0.05418 
80 1 7.34195 5.87497 0.808573 0 0 -1 0.017659 
4073 2 7.99288 5.61155 1.31004 0 0 0 0.515349 
3679 2 8.09862 5.18736 0.454543 0 1 2 0.00418878 
3526 2 9.20337 8.4682 2.95609 -1 0 0 0.0766634 
4233 2 3.58586 0.152799 3.38412 1 1 1 0.0432109 
979 1 0.0999384 0.803109 0.890095 0 1 0 0.0200709 
2497 1 8.6782 5.76369 0.799674 0 0 0 0.0282702 
1215 1 8.55788 5.03259 1.45385 0 0 1 0.00572676 
23 1 7.54638 6.69002 4.62085 0 0 0 0.0939705 
3871 2 6.54081 7.99834 0.00539486 0 0 0 0.0123685 
1077 1 0.766306 6.84556 1.09433 0 0 0 0.0213079 
17 1 1.488 7.80032 1.15907 0 0 1 0.0165364 
70 1 1.7375 8.83877 0.0428742 0 0 0 0.00848609 
2250 1 1.75549 6.70083 1.24193 1 0 0 0.00655937 
2303 1 2.09977 7.89524 0.324585 1 1 0 0.0226843 
3731 2 2.29693 7.85925 1.43295 0 0 0 0.00774569 
759 1 2.51556 6.97368 0.142925 0 0 1 0.0668833 
1830 1 2.67881 7.17396 1.10302 0 0 0 0.0149865 
1252 1 7.52358 0.506539 0.200949 0 1 1 0.0225873 
961 1 4.45788 6.6578 0.322586 0 1 1 0.0272084 
3878 2 3.22196 6.45673 0.633928 0 0 2 0.0293104 
543 1 3.79777 7.21143 0.817264 0 0 1 0.0287067 
580 1 5.68703 9.51416 0.497236 0 0 1 0.0161794 
985 1 5.55773 6.62345 0.545362 0 0 1 0.0136543 
270 1 4.93191 7.40574 0.958039 0 0 0 0.0219243 
1191 1 6.44666 7.96852 0.997893 0 0 0 0.00674204 
4287 2 5.77836 7.40594 1.14462 0 0 0 0.00588371 
1305 1 6.24138 0.048572 3.59986 0 1 0 0.0123531 
1963 1 5.64088 7.99565 0.236765 0 0 1 0.0676401 
3539 2 7.3103 6.6857 0.383671 0 0 1 0.0656031 
1101 1 8.10477 6.55058 0.882261 0 0 1 0.0962201 
1364 1 7.37148 7.59183 0.560641 0 0 0 0.0649282 
1222 1 6.93178 6.86569 1.14012 0 0 0 0.082892 
1980 1 7.33085 7.89361 1.64985 0 0 0 0.0799838 
3493 2 6.09648 4.50695 0.109887 0 0 -1 0.222223 
2416 1 8.44305 7.5332 0.825121 0 0 1 0.0630429 
551 1 9.1429 6.75132 0.733976 0 0 0 0.067976 
43 1 4.3634 7.89563 0.145745 0 0 0 0.0271974 
3168 1 1.44146 7.61368 4.71606 1 0 0 0.0599082 
646 1 0.963688 8.50098 0.684476 0 0 1 0.0391754 
3126 1 0.317863 9.11516 1.33427 1 0 1 0.0252612 
1235 1 0.191559 0.0541426 2.61199 1 0 1 0.0228366 
121 1 2.04153 8.73427 1.09867 0 0 0 0.0276108 
2833 1 2.7178 8.71897 0.307614 1 0 1 0.0151862 
959 1 3.13952 8.14919 1.21269 0 0 0 0.00255124 
998 1 3.08312 9.26966 1.13068 0 0 1 0.03272 
3206 1 9.68047 5.63051 1.09196 0 0 0 0.0228594 
645 1 4.20149 8.15827 1.15788 0 0 1 0.0848113 
203 1 3.81063 8.75927 0.429325 0 0 1 0.0141896 
1141 1 4.9744 4.65151 4.73943 0 0 0 0.026968 
228 1 5.23379 9.38156 1.52334 0 0 0 0.00739571 
2263 1 4.90954 8.70194 0.68231 0 0 0 0.00852007 
1120 1 5.36808 8.20218 1.53777 0 0 0 0.00800532 
3064 1 6.28224 8.75688 0.36544 1 0 0 0.0147964 
204 1 6.16273 8.93871 1.4937 0 0 0 0.0234664 
205 1 3.20816 9.50528 3.40172 0 0 0 0.0158473 
3629 2 6.96194 8.79959 1.92407 0 0 0 2.73012 
1613 1 7.08383 8.7805 1.02705 0 0 1 0.00635925 
2757 1 7.59905 9.4314 0.266285 0 0 0 0.0492134 
1218 1 0.142778 4.5925 1.5663 0 0 2 0.0187485 
2626 1 8.04955 8.54664 0.787496 0 0 0 0.178165 
1908 1 9.06415 8.41185 0.851435 0 0 0 0.0862779 
3226 1 8.04125 9.4293 3.99 1 0 0 0.0499772 
1216 1 8.9002 9.41993 3.3384 0 0 0 0.0717429 
3247 1 3.72603 0.136565 2.48992 1 1 0 0.0590053 
648 1 7.77617 3.65786 4.66568 0 0 0 0.0218024 
2551 1 0.627428 0.624704 1.77356 1 0 0 0.0418057 
3279 1 0.999846 0.658667 2.81603 1 1 0 0.0503245 
597 1 1.02653 1.52541 2.12391 0 0 0 0.0507545 
993 1 0.559359 1.57016 3.15203 0 1 0 0.0559162 
2644 1 0.795675 9.18993 4.77299 1 0 1 0.0557831 
2214 1 6.53526 6.78516 4.75114 0 0 1 0.0240649 
3011 1 1.94262 1.63316 1.62312 1 0 0 0.0372699 
2595 1 1.92758 0.754904 2.27421 0 0 0 0.0361329 
2565 1 1.66165 1.49879 3.0044 1 0 0 0.0158487 
1262 1 2.60259 1.59955 2.63937 0 1 0 0.0552737 
950 1 3.00236 0.779565 1.97189 0 1 0 0.0480495 
1238 1 2.92258 0.566128 3.03871 0 0 0 0.0648389 
4130 2 3.8252 0.927017 2.174 0 0 -1 0.0850263 
3430 1 4.57569 1.2838 2.26703 1 1 1 0.00784671 
3272 1 4.03051 0.97211 3.05016 1 1 0 0.0178657 
416 1 4.80337 0.335725 2.74676 0 1 1 0.0306319 
1875 1 5.32855 0.716366 1.81047 0 1 1 0.0400857 
3905 2 5.35736 1.18741 2.61859 1 1 0 0.0488491 
2405 1 6.1639 1.32659 2.13253 0 1 0 0.01463 
27 1 5.953 0.386277 2.6057 0 1 0 0.0423968 
2689 1 6.17467 1.15738 3.25175 1 0 0 0.00936877 
3459 2 6.89861 1.26254 2.74948 0 0 0 0.0289035 
1032 1 6.84933 0.58703 2.17059 0 0 0 0.0833716 
820 1 7.81237 1.30064 2.56718 0 1 0 0.0369246 
626 1 1.4236 7.04323 0.299489 0 0 0 0.0267629 
1863 1 8.72705 0.980633 1.81618 0 1 0 0.0268434 
1231 1 8.8262 0.374457 2.71552 0 0 1 0.0606348 
3639 2 8.63324 1.23656 2.72588 0 0 1 0.00398874 
758 1 0.113667 5.01166 4.04458 0 0 0 0.0680967 
89 1 1.22551 2.45327 1.62281 0 0 -1 0.0469615 
3840 2 9.44399 4.91499 2.77656 0 0 0 0.0656647 
1234 1 0.248133 2.72709 1.93974 0 0 0 0.0582529 
2910 1 0.953935 2.38911 2.64405 1 0 1 0.119897 
4068 2 0.690772 3.25043 3.03905 1 0 -1 0.124239 
1647 1 1.33285 3.30057 2.22488 0 0 0 0.0204401 
12 1 0.251243 7.80816 1.10453 0 0 0 0.012142 
288 1 2.6505 3.09159 1.87855 0 1 0 0.0247965 
3586 2 2.1067 2.4747 1.58231 0 0 1 0.0150468 
636 1 1.98108 2.44752 2.41141 0 0 0 0.0364731 
3377 1 2.95899 2.69756 2.89934 1 1 1 0.0220704 
3319 1 2.88836 2.0246 1.7694 1 1 0 0.0271407 
3952 2 4.45777 1.73363 3.13372 1 1 0 0.00715048 
1123 1 3.67542 1.74331 2.53163 0 0 0 0.0117748 
538 1 3.64307 2.74125 2.06041 0 0 0 0.0368287 
610 1 4.59388 2.27354 2.42741 0 0 0 0.0060562 
4097 2 5.04164 2.93153 2.87091 0 0 1 0.00802838 
527 1 5.31628 1.99278 1.80137 0 0 0 0.00998325 
427 1 6.27004 2.36793 1.69138 0 1 0 0.0266782 
699 1 5.47081 2.05013 2.86446 0 0 1 0.0512532 
1026 1 5.67489 3.04918 2.25873 0 0 0 0.0535071 
354 1 7.0846 1.72364 1.99097 0 1 0 0.070881 
4141 2 7.73485 2.48548 2.09069 0 2 0 0.00939219 
2060 1 6.56649 2.05508 2.91552 0 0 0 0.0383848 
753 1 6.95812 2.88472 2.31861 0 0 1 0.023575 
2422 1 7.62957 2.38864 2.97575 0 1 1 0.0180712 
1250 1 9.17765 2.09279 1.73432 0 1 0 0.00114506 
706 1 8.48447 2.04888 2.49532 0 0 0 0.0226929 
787 1 7.58751 4.72486 4.76869 0 0 0 0.00999633 
3921 2 8.69537 2.93245 2.44753 0 1 -1 0.0260169 
2105 1 6.78052 4.02279 4.62183 0 0 0 0.0324029 
1140 1 3.15144 7.82306 0.161212 0 0 0 0.0509489 
1294 1 0.472717 3.89829 2.27953 0 1 0 0.0461265 
589 1 0.572676 4.75231 2.9938 0 0 0 0.0353942 
718 1 4.39207 6.06026 4.65928 0 0 0 0.0119701 
402 1 1.27419 3.91865 3.09192 0 0 0 0.138178 
3556 2 2.10694 3.76619 1.71542 0 1 1 0.0188342 
613 1 2.15806 3.55916 2.76268 0 0 -1 0.0899009 
2897 1 1.67641 4.29086 2.2551 1 1 1 0.0401762 
2002 1 2.48839 4.55834 2.97737 1 0 -1 0.0221728 
256 1 2.67969 4.37773 1.94401 0 0 0 0.0186313 
1433 1 4.19401 3.22425 2.82908 0 1 0 0.0199486 
3153 1 3.2935 3.85608 2.66647 1 0 1 0.0100251 
1288 1 4.32652 4.2417 2.26836 0 1 0 0.028886 
1181 1 4.7097 3.29873 1.934 0 0 0 0.0552934 
3295 1 5.21412 3.80063 2.98427 1 1 0 0.00649451 
2213 1 5.31895 4.73683 2.51517 0 0 1 0.0428147 
2427 1 6.35023 3.80603 2.61944 0 1 0 0.0145028 
4235 2 7.82273 3.21994 3.22968 1 0 -1 0.017159 
649 1 6.6721 4.42905 1.73571 0 0 1 0.0253202 
3508 2 7.09557 3.78097 2.17727 0 1 1 0.0316832 
1639 1 7.68438 4.42771 2.14409 0 0 0 0.0576724 
1277 1 7.29446 3.92169 3.04789 0 0 -1 0.0433191 
1536 1 7.96262 3.44839 2.42234 0 0 0 0.0065419 
3869 2 8.20872 4.15716 2.84339 0 0 -1 0.0142398 
533 1 8.56 3.98587 1.74257 0 0 0 0.0292925 
1158 1 8.94868 3.63446 2.82442 0 0 0 0.0179889 
1035 1 8.75145 4.68405 2.4184 0 0 1 0.0109454 
1347 1 1.11114 6.13696 2.01964 0 1 -1 0.107258 
185 1 5.11352 1.72442 4.68727 0 0 1 0.0394885 
3095 1 0.995845 5.04225 2.02752 1 0 0 0.0278994 
829 1 0.453614 6.12082 2.80147 0 0 0 0.138366 
3608 2 1.31347 5.86485 2.82336 0 0 0 0.242158 
119 1 1.57966 5.07155 3.24675 0 0 1 0.0595582 
118 1 1.95669 5.3019 2.31688 0 0 0 0.0622953 
99 1 2.17407 5.95339 3.10733 0 0 0 0.00871801 
633 1 2.25175 6.26389 2.09739 0 0 0 0.00564934 
3532 2 2.74197 5.38518 2.66249 0 1 0 0.0196617 
86 1 2.89688 5.44184 1.77415 0 0 0 0.0691786 
1004 1 3.43075 4.93072 2.60903 0 0 1 0.0301107 
1994 1 3.92048 5.75707 2.06451 0 0 0 0.0711457 
64 1 4.45806 5.18679 2.82177 0 0 -1 0.0128147 
875 1 3.13808 6.1504 2.65234 0 1 1 0.0321677 
157 1 4.39556 6.22296 2.8613 0 0 1 0.0469307 
3520 2 3.75122 5.5792 3.1069 0 0 0 0.0203049 
1139 1 4.67946 4.96771 1.66838 0 0 0 0.0547707 
3037 1 5.14716 5.88767 2.10584 1 0 0 0.0120731 
525 1 5.81098 5.18933 1.72476 0 0 0 0.0265195 
4053 2 6.20311 4.61449 2.44066 0 0 -1 0.0679545 
827 1 6.09227 5.57569 2.61427 0 0 0 0.0346306 
3575 2 6.4244 6.24824 3.1712 0 1 0 0.0257246 
1083 1 7.85115 5.03405 3.14032 0 0 0 0.0160559 
662 1 6.76826 5.5554 1.65382 0 0 1 0.0326637 
635 1 6.92191 4.99877 2.6059 0 0 0 0.0501614 
579 1 7.26679 5.8982 3.04647 0 0 0 0.19898 
1628 1 8.0226 5.50717 2.237 0 0 0 0.0750119 
3475 2 8.19314 5.7333 3.32629 0 0 -1 0.219539 
724 1 4.22653 9.22934 3.98198 0 0 0 0.0250203 
1040 1 8.95879 5.98042 1.82413 0 0 1 0.00591225 
412 1 0.31761 1.53598 4.19074 0 1 1 0.0271978 
1156 1 8.91973 5.65661 2.83518 0 0 0 0.0315955 
2468 1 0.418414 7.18549 2.93139 1 0 0 0.206751 
3347 1 0.934583 7.34126 2.0501 1 0 0 0.0192971 
2790 1 1.50931 6.81254 2.83723 1 0 -1 0.0384981 
273 1 1.50296 7.85679 2.93727 0 0 -1 0.102464 
3072 1 0.497725 8.12564 3.42818 1 0 0 0.33794 
3920 2 0.657838 8.01183 2.62083 1 0 0 0.543789 
564 1 2.54705 7.01437 2.91402 0 0 0 0.00244088 
770 1 2.01526 7.33313 2.07968 0 0 1 0.00464577 
4203 2 2.30206 7.97265 2.83975 0 0 0 0.00511541 
559 1 2.90055 7.89519 2.27553 0 0 0 0.0213169 
3827 2 2.91466 7.0191 2.06637 0 1 1 0.00304372 
3256 1 4.3994 6.62209 1.51574 1 0 0 0.0440256 
3257 1 3.36005 6.49914 1.5798 1 0 0 0.0299128 
3741 2 4.70525 7.63399 1.7261 0 -1 2 0.0983928 
2990 1 3.7895 7.47338 1.80495 1 0 0 0.0387338 
3855 2 3.87326 6.69945 2.26916 0 0 -1 0.0898876 
895 1 4.56874 7.24173 2.54879 0 0 1 0.0688356 
1530 1 3.5121 7.14604 2.78511 0 0 1 0.0168969 
3638 2 3.73254 7.94567 2.61741 0 0 0 0.00743947 
126 1 5.48209 7.81396 2.46387 0 0 0 0.011066 
832 1 5.34207 6.99197 1.81253 0 0 0 0.0310887 
556 1 5.36306 6.58751 2.81634 0 0 0 0.0553902 
224 1 6.63502 6.41736 2.31286 0 0 0 0.106419 
1602 1 6.296 7.36656 1.83036 0 0 0 0.207559 
1410 1 6.20131 7.16377 2.97013 0 0 0 0.0647708 
1068 1 7.53733 6.2728 1.78954 0 0 0 0.208664 
1160 1 7.3385 7.27111 2.48683 0 0 1 0.0409391 
3953 2 7.98903 7.87606 2.45 0 0 -2 0.216659 
1438 1 8.15394 6.41175 2.77088 0 0 0 0.0804132 
2840 1 9.25451 7.38595 1.53372 0 0 0 0.0789062 
1539 1 8.22492 7.05306 1.94386 0 0 0 0.136666 
1652 1 8.78184 7.70344 2.72023 0 0 1 0.00522296 
1388 1 9.17024 6.74628 2.51715 0 0 1 0.0166731 
3814 2 8.92468 3.05207 0.124637 -1 0 2 0.0268774 
3547 2 8.60474 6.98453 3.31187 -1 1 0 0.0284042 
2566 1 1.30304 9.25002 1.67208 1 0 0 0.0210772 
18 1 0.795155 8.36167 1.8081 0 0 0 0.00772413 
4174 2 0.432447 9.27251 3.1022 1 0 0 0.00915088 
742 1 1.05887 8.84145 2.6415 0 0 1 0.0149871 
3569 2 0.366972 6.33069 0.417328 0 0 2 0.0388886 
571 1 1.23373 9.48507 0.64723 0 0 1 0.00419751 
136 1 1.90584 8.41169 2.117 0 0 0 0.00933376 
3964 2 1.825 9.29352 2.51801 0 0 0 0.0151405 
4284 2 2.7057 8.68915 1.76027 0 0 2 0.0160242 
2635 1 2.70766 8.86242 2.57395 1 0 0 0.023953 
665 1 5.86389 8.23364 3.28641 0 0 1 0.0585846 
3973 2 4.72869 8.70222 1.66154 0 0 -1 0.138287 
144 1 3.70077 8.68751 1.89955 0 0 0 0.0222438 
644 1 4.5551 8.21544 2.35399 0 0 1 0.0126219 
3269 1 3.88122 8.76163 2.96349 1 0 0 0.00849432 
774 1 4.50191 9.45609 2.26178 0 0 0 0.0511017 
3815 2 4.91373 8.11846 3.10344 0 1 0 0.0567586 
307 1 5.51882 8.83591 2.36907 0 0 0 0.0136028 
3583 2 6.55321 8.63233 3.17457 -1 0 1 1.04391 
1016 1 6.47491 9.3016 2.53115 0 0 0 0.00097743 
3107 1 2.93744 5.80438 0.0304239 1 0 1 0.0262491 
184 1 9.59027 3.15632 3.76134 -1 0 0 0.00817592 
1752 1 7.47606 8.60709 2.6255 0 0 0 0.238873 
1832 1 6.42674 8.24619 2.32052 0 0 0 0.667455 
1442 1 7.87201 8.95553 1.71923 0 0 0 0.146916 
4279 2 7.43655 9.45803 2.2889 1 0 0 0.289541 
1529 1 6.92366 7.80725 3.22042 0 0 0 0.327678 
2447 1 8.84114 8.09303 3.66011 0 0 0 0.0656444 
1134 1 8.38027 7.99699 1.69346 0 0 1 0.0487763 
4223 2 8.64322 8.80674 1.47168 1 0 1 0.165188 
1142 1 8.53596 8.7694 2.5134 0 0 1 0.126726 
140 1 9.47713 4.1664 4.22598 0 0 1 0.0306866 
751 1 9.34664 8.33614 2.00311 0 0 1 0.0329215 
4186 2 9.47113 1.24289 1.56567 0 1 1 0.0701693 
107 1 1.30239 0.952173 3.83218 0 0 0 0.00590945 
630 1 2.38345 9.53088 4.71133 0 0 0 0.0263904 
1554 1 2.92529 3.12394 0.114343 1 0 0 0.0758926 
3410 1 2.39382 1.08825 3.86356 1 1 0 0.036348 
3976 2 4.07438 9.58244 3.09521 1 0 0 0.0250294 
4194 2 4.50513 0.466089 3.58306 1 1 1 0.0177651 
401 1 3.59066 0.754464 4.00153 0 1 0 0.00889244 
627 1 4.50046 0.703874 4.49715 0 0 0 0.0320626 
355 1 4.18154 1.60556 4.0236 0 1 0 0.0429023 
1260 1 8.42565 9.54607 0.995148 0 0 0 0.146818 
2995 1 1.75639 8.57026 4.43891 1 0 0 0.0120552 
904 1 5.04616 1.23336 3.45983 0 1 2 0.0347312 
3947 2 3.31624 7.74522 4.66009 1 0 1 0.0496024 
4038 2 5.49662 0.490998 3.35197 0 1 0 0.0154377 
748 1 9.63822 7.98837 4.56043 0 0 0 0.0332782 
3143 1 5.7055 0.779852 4.14651 1 0 0 0.0120063 
383 1 7.06261 0.562826 3.28634 0 1 1 0.0358799 
1805 1 7.70584 1.02271 4.41639 0 1 -1 0.0656395 
1326 1 6.63259 1.13492 4.37754 0 1 -1 0.04394 
1304 1 7.36783 1.51097 3.54295 0 1 0 0.0703535 
2380 1 4.67273 9.64038 0.107072 0 0 0 0.0232237 
730 1 6.00894 9.22815 3.56473 0 0 1 0.0518468 
2177 1 8.12454 0.575542 3.46315 0 0 0 0.0587213 
2165 1 9.32017 9.27572 1.41526 0 0 1 0.110897 
1557 1 9.14743 1.10243 3.45335 0 0 0 0.000721624 
1227 1 8.74149 0.665162 4.29755 0 0 1 0.0134556 
2861 1 9.45044 7.32976 3.40184 0 0 0 0.0744079 
518 1 1.44519 2.76561 4.61762 0 0 0 0.0122111 
3659 2 0.552925 2.44954 3.5886 1 1 -1 0.134356 
814 1 1.20567 1.98367 3.95114 0 1 0 0.00683108 
2675 1 0.572819 3.17397 3.91088 1 0 1 0.0717628 
4184 2 2.75059 3.73808 3.34281 1 1 -1 0.677454 
2537 1 1.4655 2.93811 3.37299 1 0 -1 0.172032 
1396 1 2.12548 1.8772 4.53016 0 1 0 0.0291596 
932 1 2.28006 2.14765 3.47073 0 1 1 0.0554203 
3340 1 3.12048 2.56055 4.19632 1 1 0 0.00061635 
151 1 3.18676 1.61419 3.48952 0 0 0 0.0577532 
607 1 3.82391 2.39423 3.32572 0 0 0 0.0306376 
778 1 4.19409 2.67553 4.35153 0 1 0 0.0245012 
818 1 0.52901 9.60263 2.27511 0 0 0 0.0124859 
2024 1 5.284 2.75198 4.41472 0 0 -1 0.00694994 
1736 1 4.78006 2.33221 3.58952 0 0 1 0.0396599 
1721 1 5.79207 2.90999 3.31114 0 0 0 0.0134778 
909 1 5.78951 1.82093 3.88786 0 1 0 0.0610383 
709 1 6.195 3.12988 4.34522 0 0 0 0.0114057 
1878 1 7.16629 9.33178 3.43602 0 0 1 0.0153495 
1566 1 6.8899 3.03871 3.36658 0 0 0 0.016845 
3854 2 7.70802 1.97087 4.3954 1 0 -2 0.118893 
215 1 6.78517 2.22122 4.02795 0 0 0 0.0512706 
2149 1 7.71202 2.80066 3.97379 0 0 0 0.0671627 
3797 2 7.64764 0.00966087 0.994597 0 1 -1 0.0721618 
517 1 5.70939 8.42736 4.36283 0 0 0 0.0105855 
1916 1 8.35127 1.74413 3.5439 0 1 1 0.022652 
2302 1 9.32804 5.31555 4.72675 0 0 0 0.0929321 
3764 2 0.157538 5.44714 2.28133 0 0 2 0.12785 
1624 1 8.61462 2.86257 3.38753 0 0 -1 0.0147235 
1349 1 7.19909 9.53071 4.45138 0 0 -1 0.0129134 
1678 1 9.25617 2.09647 3.73744 0 0 0 0.0141898 
3717 2 8.41851 2.48459 4.2118 0 1 1 0.0481439 
3320 1 5.18132 9.49829 4.24348 1 0 0 0.0117643 
3993 2 1.30003 3.45458 4.04278 0 0 1 0.0911065 
2733 1 0.859306 4.20117 3.97408 1 0 1 0.0466263 
198 1 2.29187 3.20451 3.89373 0 0 1 0.208709 
1728 1 1.99979 4.15758 3.7913 1 0 1 0.106208 
194 1 1.9188 4.74812 4.58724 0 0 1 0.0707422 
487 1 4.92108 8.96734 3.21572 0 0 0 0.0392643 
301 1 3.0318 4.26233 3.95897 0 1 0 0.0421763 
710 1 4.72821 8.21204 4.1792 0 0 0 0.0528372 
3044 1 8.52505 1.6477 4.59093 1 0 0 0.0427075 
3155 1 4.11834 4.21233 3.27653 1 0 1 0.00943234 
1404 1 4.62328 3.40577 3.7167 0 1 1 0.0141846 
2569 1 3.47298 3.32847 3.66657 1 0 0 0.0164374 
2989 1 4.07438 4.10063 4.24898 1 0 0 0.0525313 
1422 1 6.18275 9.3386 4.65509 0 0 1 0.0112929 
335 1 4.96427 4.69517 3.68172 0 1 -1 0.0297788 
2553 1 5.42896 3.92108 4.1521 0 0 -1 0.0231037 
1874 1 6.32328 3.87279 3.67108 0 1 0 0.0191386 
33 1 6.0371 4.73704 4.33203 0 0 -1 0.0347404 
1362 1 8.71372 9.11941 0.10865 0 0 0 0.0386831 
2717 1 0.129135 5.53343 0.150975 1 0 0 0.0727907 
1104 1 8.33172 2.08531 0.0848657 0 0 0 0.0208793 
3864 2 7.26486 3.67831 3.89852 0 1 -1 0.0640326 
1532 1 7.03769 4.71623 3.73703 0 0 0 0.0697406 
1143 1 8.10006 3.90957 3.74651 0 0 1 0.00876435 
2532 1 0.753332 0.0151719 3.82333 1 0 0 0.0315455 
1193 1 8.69345 3.35223 4.4594 0 0 1 0.0414336 
3889 2 7.53661 9.50396 1.10718 0 -1 1 0.0715063 
3780 2 8.95226 3.73355 3.64114 0 0 2 0.0173768 
821 1 3.01162 8.08439 3.29341 0 0 0 0.0321456 
2528 1 8.8154 4.61577 3.43869 0 0 0 0.0203359 
1504 1 3.2109 1.51925 4.54592 0 1 0 0.0324426 
4253 2 0.574439 5.54632 3.39188 1 0 0 0.0587741 
3839 2 1.11708 5.98277 4.51416 0 1 1 0.0595845 
2727 1 1.08261 5.23607 4.11047 1 0 0 0.0574322 
40 1 1.22867 6.19336 3.64156 0 0 0 0.0100279 
768 1 1.59817 3.78045 4.81362 0 1 0 0.0101141 
4122 2 0.41935 6.60541 3.56172 1 -1 0 0.0716501 
3902 2 2.39119 4.97045 3.86519 1 0 1 0.0368491 
521 1 1.9896 5.71207 4.18002 0 0 0 0.0449405 
3640 2 2.94978 6.52035 3.47475 0 -1 1 0.0266913 
221 1 2.90191 6.33111 4.35123 0 0 0 0.0179462 
1848 1 2.92596 5.147 4.60296 0 1 -1 0.0300823 
1653 1 2.97162 5.5571 3.58333 0 0 0 0.025447 
1645 1 3.44529 3.45038 4.67613 0 0 0 0.037409 
3477 2 3.56249 5.63801 4.34942 0 -1 -2 0.0235904 
1392 1 3.82639 5.04621 3.86256 0 1 1 0.0408973 
3523 2 4.50707 5.5658 3.71689 0 0 1 0.0663373 
1048 1 3.86873 6.14747 3.70765 0 0 0 0.0407722 
3141 1 5.35285 5.6031 3.31195 1 0 0 0.0118204 
1654 1 5.3558 5.56387 4.38177 0 0 0 0.0333115 
172 1 6.06814 4.74242 3.33058 0 0 0 0.0325498 
600 1 2.63444 8.78058 3.90514 0 0 0 0.0125738 
3600 2 8.04775 5.99413 4.58176 0 0 0 0.0175758 
4159 2 6.93877 6.13076 4.32955 0 0 0 0.0421752 
1445 1 6.46439 5.57321 3.78108 0 0 1 0.115588 
4100 2 6.82485 5.10456 4.47512 1 0 1 0.0279993 
2108 1 7.49812 5.54385 3.9873 0 0 0 0.0416999 
3798 2 8.01313 4.74738 3.9885 0 1 -1 0.0469265 
568 1 8.52902 8.10825 4.74773 0 0 -1 0.0207854 
465 1 1.9076 8.75011 3.25041 0 0 0 0.0226089 
1221 1 9.59131 5.20226 2.0071 0 0 1 0.0243727 
2037 1 8.55971 5.46714 4.05476 0 0 -1 0.0383076 
1876 1 8.07816 6.45633 3.79849 0 0 0 0.0790186 
3426 1 0.601085 8.10974 4.4687 1 0 0 0.156443 
3554 2 3.3952 4.40104 4.75331 0 1 2 0.0451504 
4165 2 9.55362 7.53407 2.30912 0 0 1 0.0620092 
2119 1 0.635429 6.84795 4.70725 1 -1 1 0.103413 
466 1 1.107 7.2954 3.7281 0 0 1 0.103001 
4240 2 1.41698 8.23195 3.73354 1 -1 0 0.0647689 
2929 1 7.837 8.42736 3.60213 0 0 1 0.0235188 
2556 1 2.13728 7.78258 3.77955 1 0 1 0.0702108 
434 1 2.09436 6.74886 3.84534 0 0 0 0.0345218 
666 1 3.31114 7.26928 3.90723 0 0 0 0.0172762 
1244 1 4.17654 7.81996 3.38166 0 0 0 0.00958183 
3006 1 8.61896 4.45057 4.62263 1 0 0 0.0164458 
534 1 4.36413 7.22857 4.25601 0 0 0 0.0271718 
3763 2 4.23319 6.91211 3.39401 1 0 1 0.0105908 
697 1 2.31556 9.48743 1.85411 0 0 0 0.0100655 
430 1 5.16944 7.40019 3.54206 0 0 0 0.0355214 
1275 1 5.39792 7.40061 4.59632 0 0 0 0.0727965 
766 1 4.8774 6.37528 3.73705 0 0 0 0.0732816 
57 1 5.88373 6.48488 3.86416 0 0 0 0.044633 
1988 1 6.29257 7.49379 3.96149 0 0 0 0.0915446 
1039 1 3.64805 8.35726 4.15753 0 0 1 0.0191374 
584 1 9.47743 1.43399 2.52342 0 0 0 0.0360174 
3041 1 7.08122 6.79815 3.5898 1 0 -1 0.0429008 
1705 1 7.47421 7.62445 4.18306 0 0 1 0.130995 
177 1 7.94447 7.43325 3.2575 0 0 0 0.0120223 
2685 1 9.08772 6.36351 3.60322 0 0 0 0.117787 
1453 1 8.62043 7.19864 4.1649 0 0 0 0.015894 
3092 1 3.41085 9.2697 4.57193 1 0 0 0.0259673 
3071 1 6.75077 8.54398 3.98233 1 0 0 0.00799262 
4137 2 1.50095 9.46529 4.32761 1 1 1 0.153494 
2169 1 1.02021 9 3.7663 1 0 0 0.117078 
1230 1 9.69008 5.19814 3.77924 0 0 1 0.0912567 
1353 1 0.751742 0.583875 4.6867 0 1 0 0.017013 
1839 1 7.61024 8.60625 4.66555 0 0 -1 0.0129345 
1667 1 9.1598 2.45442 4.7407 0 0 0 0.0214959 
1095 1 8.82424 6.30711 4.71598 0 0 0 0.0248041 
4236 2 0.211847 2.0601 2.48646 1 0 0 0.0537025 
1944 1 3.35473 9.64072 2.23744 0 0 0 0.00823444 
201 1 2.60839 4.28897 0.078763 0 0 2 0.0533462 
2399 1 4.22801 9.42955 1.28556 0 0 0 0.0406744 
1694 1 6.42697 7.21926 0.211241 0 0 1 0.0258294 
333 1 2.69655 0.534316 4.71526 0 1 0 0.0568707 
946 1 7.36788 2.42272 0.11104 0 1 1 0.0454423 
3912 2 9.68258 3.35193 4.63557 0 1 0 0.00137594 
3376 1 1.71123 6.56691 4.81164 1 1 -1 0.0573529 
4230 2 8.72169 6.37601 0.0434449 1 0 0 0.0271996 
78 1 0.0527621 1.72489 1.60002 0 0 0 0.0840463 
187 1 1.89794 3.49398 0.0161101 0 0 0 0.135233 
3024 1 1.02928 0.920045 5.7467 1 1 0 0.0323389 
3558 2 0.279665 1.27248 5.99602 1 0 1 0.0077071 
41 1 3.53553 6.71714 9.47285 0 0 0 0.0240611 
2319 1 3.055 1.02639 9.51789 0 0 -1 0.014041 
3497 2 4.82641 1.57034 9.31033 0 0 2 0.06116 
1276 1 1.95891 0.828309 6.10498 0 0 -1 0.0360948 
4300 2 1.63212 1.45424 5.59485 0 1 0 0.0503032 
2933 1 2.56281 1.37239 5.39025 0 1 0 0.0364725 
1688 1 7.53954 0.109846 8.8974 0 0 0 0.0676609 
1764 1 2.95789 0.515417 6.02243 0 1 -1 0.0498823 
4273 2 4.18419 0.902577 5.80536 1 1 0 0.045928 
1720 1 3.64221 0.658635 5.17757 0 0 0 0.0926974 
578 1 3.47856 1.43561 5.84614 0 0 0 0.0318162 
3999 2 4.51551 8.74628 9.53097 0 0 0 0.00359155 
582 1 4.88525 0.995237 5.40149 0 0 0 0.0454018 
471 1 4.81417 0.364738 6.3357 0 1 1 0.0580021 
417 1 5.65501 0.97983 6.15509 0 1 0 0.0165676 
2048 1 5.89726 1.1338 5.14795 0 0 -1 0.0410852 
900 1 6.67787 7.84763 4.85658 0 1 0 0.0259002 
2201 1 6.86153 0.837362 5.36048 0 0 0 0.043687 
880 1 6.52099 0.388592 6.30068 0 1 0 0.0345911 
1710 1 7.87776 1.23379 5.37646 0 0 1 0.0465571 
1382 1 1.08329 7.94734 9.46924 0 0 0 0.0889725 
286 1 7.2916 1.11651 6.28238 0 1 0 0.0328054 
1310 1 6.48894 1.66233 5.86741 0 1 0 0.116056 
1036 1 9.02895 1.07015 5.30351 0 0 1 0.0224177 
1291 1 8.46047 0.809792 6.19931 0 1 0 0.0663784 
2780 1 9.51095 4.2734 8.7415 0 1 -1 0.312114 
2493 1 9.29097 1.50477 6.29605 0 0 0 0.0155522 
3579 2 0.556711 0.502255 8.26242 0 0 0 0.0328396 
4048 2 0.973781 2.46423 5.31619 1 1 0 0.0193383 
141 1 0.930422 1.93757 5.97091 0 0 0 0.0356446 
1527 1 0.343681 3.01139 5.83385 1 0 -1 0.0228185 
154 1 1.34516 3.16912 5.60254 0 0 0 0.0182524 
3324 1 1.86503 2.32084 5.46487 1 1 0 0.0278755 
206 1 5.91778 5.42657 9.57364 0 0 0 0.0424949 
1521 1 2.21312 3.16838 6.10547 0 0 0 0.0329732 
3488 2 9.47274 7.57414 8.83345 -1 0 -1 0.162979 
1131 1 2.84063 2.28237 5.93494 0 0 0 0.00908531 
2184 1 1.21658 0.0441873 6.50438 1 0 0 0.0435051 
1069 1 4.53871 1.71413 6.04358 0 0 0 0.0154422 
248 1 4.68793 2.50653 5.26003 0 0 0 0.0119704 
83 1 4.03392 2.66981 6.11328 0 0 -1 0.0248702 
1425 1 3.5229 2.50737 5.19001 0 1 0 0.01747 
3503 2 4.09742 3.20616 5.44051 0 0 1 0.0117307 
1801 1 5.18528 2.65665 6.34744 0 1 0 0.0240287 
3727 2 6.03947 2.28054 6.28859 0 1 -1 0.182001 
881 1 5.65745 3.03689 5.41958 0 1 1 0.0172245 
2093 1 5.44958 1.92994 5.68625 0 0 0 0.0576219 
1082 1 6.6289 2.7733 5.75133 0 0 -1 0.0188178 
1117 1 7.5683 2.10547 5.95762 0 0 0 0.0787483 
4210 2 0.0824424 4.25757 8.35443 1 0 0 0.0211415 
2097 1 8.6637 2.03773 5.71875 0 0 0 0.0385734 
3688 2 9.3391 2.51881 5.81125 0 0 2 0.0366727 
4301 2 8.21009 2.65976 6.13628 0 0 0 0.122027 
941 1 0.672892 4.04817 5.91638 0 1 0 0.090329 
3724 2 8.19914 7.17247 4.93143 0 0 0 0.0552473 
1826 1 8.92081 8.15036 8.66755 0 0 -1 0.201649 
3708 2 0.071009 3.72911 9.5058 0 1 1 0.0188606 
2973 1 9.46858 4.93559 6.86232 0 0 0 0.0667016 
3747 2 1.91466 3.8192 5.58071 0 0 0 0.101714 
389 1 1.60076 4.62094 5.72692 0 1 0 0.0921707 
719 1 2.50804 4.25052 5.99089 0 0 1 0.0425958 
1321 1 1.55204 3.87216 6.39977 0 0 0 0.0251858 
1477 1 3.21663 3.43954 5.66466 0 1 0 0.010244 
2068 1 8.36351 0.226102 5.29744 0 0 0 0.0197371 
1924 1 4.78963 3.51707 5.8991 0 0 0 0.000952308 
341 1 4.0342 4.14336 5.32183 0 1 0 0.0294381 
4042 2 3.8823 3.57245 6.26001 0 1 1 0.00751214 
4010 2 2.49547 2.58454 9.12601 0 0 -1 0.112747 
1074 1 5.16814 4.55786 5.84663 0 0 0 0.0207507 
4088 2 6.0643 4.42144 5.96078 1 0 -1 0.0799299 
1136 1 5.82796 4.10543 5.16398 0 0 0 0.0496815 
1565 1 5.77196 3.66898 6.16607 0 0 -2 0.00199197 
127 1 7.59168 3.27058 5.69797 0 0 0 0.00396901 
4117 2 6.4291 3.38939 5.15105 0 0 0 0.0456526 
1819 1 6.70795 3.91792 5.83759 0 0 0 0.0194459 
3970 2 7.44644 4.17371 5.44588 0 1 -1 0.00292691 
96 1 6.76252 4.94036 6.26707 0 0 0 0.0182022 
1261 1 7.54866 4.14721 6.41155 0 0 0 0.00259719 
1292 1 8.70148 3.13916 5.51963 0 0 0 0.132687 
2440 1 7.14361 1.86279 5.00641 0 0 1 0.103384 
3637 2 9.09102 3.99513 5.96182 -1 0 1 0.0398072 
1841 1 8.35586 3.47555 6.51592 0 0 -1 0.0827461 
703 1 8.50878 4.60481 6.5516 0 0 0 0.0649347 