ITEM: TIMESTEP
38400
ITEM: NUMBER OF ATOMS
4320
ITEM: BOX BOUNDS xy xz yz pp pp pp 
0 19.4645 0.15448
0 19.31 0
0 9.655 0
ITEM: ATOMS id type x y z ix iy iz msd_nonAffine 
3378 1 1.08721 0.622849 0.284462 1 1 1 0.0212336 
486 1 1.54149 0.797676 1.33017 0 1 1 0.0197042 
4233 2 3.48538 0.0249766 3.54368 1 1 1 0.0779274 
332 1 0.951791 1.53721 0.877778 0 1 0 0.0116155 
964 1 2.16238 0.646266 0.474919 0 1 1 0.0217277 
2357 1 8.86581 5.00742 0.366269 0 0 0 0.0624065 
3697 2 1.84713 1.47161 0.772687 1 1 1 0.0140899 
135 1 2.70308 1.39792 0.912395 0 1 1 0.0484901 
1553 1 4.36538 0.593348 0.527809 0 0 0 0.0108017 
4065 2 3.48589 1.32302 0.596158 1 1 1 0.0780391 
1198 1 3.29588 0.448211 0.786594 0 0 1 0.0470875 
868 1 3.768 1.21653 1.39509 0 1 0 0.0166888 
3422 1 4.25429 0.246466 1.62028 1 1 0 0.0390053 
1493 1 4.86201 1.35841 1.26275 0 1 1 0.0161578 
4074 2 5.12838 0.516759 0.986987 0 1 1 0.017167 
3203 1 5.26349 1.18521 0.397324 1 0 0 0.0581339 
1264 1 5.91279 1.3923 1.23938 0 1 0 0.0877081 
376 1 5.98273 0.401569 0.82601 0 1 0 0.0197005 
3758 2 6.28948 0.709344 1.69447 0 0 1 0.0470665 
663 1 6.92106 0.662603 1.2155 0 0 0 0.0876801 
963 1 6.63989 1.20357 0.370144 0 1 1 0.0785866 
4222 2 6.65189 0.376918 0.256203 1 0 -1 0.000727655 
165 1 0.657236 2.27389 0.00880466 0 0 1 0.0079661 
3903 2 8.97198 0.445975 0.07081 0 1 -1 0.0308019 
2154 1 7.84429 0.873518 1.57499 0 0 1 0.0376357 
4078 2 8.21264 1.11948 0.451894 0 1 0 0.114585 
1783 1 9.36375 0.533644 0.830427 0 1 0 0.0166971 
1177 1 8.74458 1.45144 1.03184 0 0 1 0.0325519 
2805 1 8.36596 0.339293 0.716405 1 1 1 0.02779 
3124 1 9.37955 3.17391 1.89324 0 0 1 0.010863 
3569 2 0.10661 6.45348 0.203533 0 0 2 0.15533 
4241 2 9.21975 9.13942 0.599004 0 0 1 0.0940198 
1813 1 8.01346 5.87085 0.0605899 0 0 1 0.0196951 
2926 1 1.46659 2.37046 0.58309 1 1 1 0.0098769 
2794 1 0.26251 2.5257 0.921874 1 0 0 0.0506832 
3597 2 0.809766 3.12393 1.34314 0 1 0 0.0611527 
3912 2 9.66709 3.32423 4.65142 0 1 0 0.000771103 
885 1 2.54765 2.5569 0.894202 0 1 1 0.0233416 
3694 2 9.29021 0.22785 3.64551 0 1 1 0.0437646 
512 1 1.58757 3.3354 1.13299 0 0 0 0.0612615 
3535 2 3.20092 2.93114 1.28309 0 1 0 0.0499283 
2717 1 0.184186 5.60719 0.208677 1 0 0 0.0895988 
3224 1 4.36849 1.79017 0.416714 1 1 0 0.0524822 
1822 1 3.61083 2.19765 0.980467 0 1 0 0.014626 
1031 1 4.51072 2.57278 1.27512 0 0 0 0.0616521 
3604 2 4.05427 2.50114 0.238132 0 0 0 0.0059703 
4308 2 4.23908 1.97032 1.91313 0 0 1 0.137988 
640 1 4.84664 2.93579 0.382606 0 0 1 0.0370323 
1704 1 5.97381 2.94407 0.349779 0 0 1 0.0235254 
3626 2 5.95315 1.82872 0.231548 0 0 0 0.0265597 
100 1 5.49075 3.16043 1.26061 0 0 0 0.0382149 
951 1 5.34915 2.12228 0.783748 0 1 1 0.0774914 
1055 1 7.56425 1.569 0.784959 0 0 0 0.0172285 
3784 2 6.76947 1.45462 1.17121 0 0 -1 0.107673 
629 1 6.52557 2.18946 0.743115 0 0 0 0.0453526 
1563 1 7.35961 2.52342 1.34059 0 0 0 0.0330634 
576 1 8.04341 3.19253 0.520608 0 0 0 0.0187305 
1632 1 8.12035 1.85967 1.7638 0 0 0 0.0346446 
3737 2 8.10068 2.3066 0.964418 1 1 0 0.0684304 
3175 1 9.20373 2.39367 0.685685 1 0 1 0.0053116 
1395 1 8.37214 2.83729 1.53035 0 1 1 0.0163549 
3840 2 9.45009 5.04704 3.01953 0 0 0 0.0599363 
790 1 2.42273 0.322905 1.54374 0 1 0 0.0527778 
3383 1 0.812237 3.26239 0.426085 1 0 1 0.0474672 
547 1 0.97392 4.04505 1.24831 0 0 1 0.0570125 
2997 1 0.319061 4.16916 0.336756 1 0 0 0.0354149 
72 1 1.41128 4.10737 0.298151 0 0 0 0.0654889 
3206 1 9.68478 5.67028 1.10549 0 0 0 0.0117282 
1353 1 0.590829 0.55858 4.75623 0 1 0 0.0487285 
2007 1 1.97869 4.42819 1.15992 1 0 0 0.0521198 
1216 1 9.04894 9.3482 3.46954 0 0 0 0.0291667 
3150 1 2.64582 3.56408 0.979659 1 0 0 0.106712 
1485 1 3.9473 3.23648 0.801011 0 1 1 0.00687335 
380 1 4.52969 3.96849 0.207669 0 1 1 0.00142291 
34 1 3.53097 4.20152 0.649709 0 0 0 0.00749658 
1056 1 4.6374 4.02537 1.2349 0 0 0 0.0185072 
965 1 3.65398 3.69311 1.6973 0 0 1 0.0372707 
3915 2 5.30635 3.71771 0.619755 0 1 1 0.0321856 
555 1 5.39899 4.79917 0.703016 0 0 0 0.0159118 
1214 1 6.18761 4.00709 0.770118 0 0 1 0.0222729 
910 1 5.50338 4.12511 1.85989 0 1 0 0.122466 
810 1 6.8953 3.20861 0.675315 0 1 1 0.0473216 
1626 1 9.32913 6.03887 0.107285 0 0 0 0.0353746 
981 1 7.3699 4.15348 0.330796 0 1 0 0.0146515 
3546 2 7.03021 4.16886 1.10361 0 0 1 0.00189818 
2081 1 7.62142 3.56692 1.44059 0 0 0 0.0272559 
2050 1 6.52767 3.4003 1.57821 0 0 0 0.0118196 
303 1 9.50986 2.53826 2.75461 0 1 0 0.0170045 
639 1 9.03176 3.42046 0.928882 0 0 0 0.0026337 
1153 1 9.40791 4.55305 1.1877 0 0 0 0.0214385 
1946 1 8.28315 4.17174 0.816624 0 1 0 0.0738273 
3094 1 0.808897 4.99724 0.792436 1 0 0 0.103087 
2010 1 1.20336 5.90065 0.489557 1 0 0 0.0217649 
2451 1 8.9011 8.92017 4.4655 0 0 1 0.0234979 
738 1 9.61871 9.29464 2.61604 0 0 0 0.0236504 
1221 1 9.64298 5.16478 2.12087 0 0 1 0.020339 
4081 2 2.09148 5.87275 0.35773 1 1 0 0.195917 
1976 1 1.74875 5.44512 1.22617 0 0 1 0.0755975 
2670 1 2.02618 5.03796 0.211664 1 0 1 0.11187 
1042 1 2.60107 6.00542 1.00778 0 0 1 0.0275064 
1233 1 2.82332 4.96195 0.95086 0 0 1 0.00609829 
3107 1 2.91459 5.68918 0.0940842 1 0 1 0.0254204 
3059 1 3.76066 4.69968 1.5882 1 0 0 0.0454249 
2654 1 4.34236 4.88213 0.631242 1 0 1 0.00593641 
138 1 3.66578 5.65015 1.01881 0 0 1 0.0576026 
3671 2 3.47219 5.05479 0.409735 0 0 1 0.014743 
3034 1 5.07677 5.86914 1.10893 1 0 0 0.0363251 
3971 2 5.7057 5.63666 0.562754 0 0 0 0.0975607 
146 1 6.47436 6.06262 0.480808 0 0 0 0.0093871 
655 1 5.95314 6.15209 1.34948 0 0 0 0.0332512 
140 1 9.57407 4.08875 4.25221 0 0 1 0.037847 
2653 1 7.47127 4.96463 1.15285 0 0 1 0.0136845 
537 1 6.42427 5.12234 0.945676 0 0 0 0.0412335 
80 1 7.52827 5.95289 1.01651 0 0 -1 0.0404188 
4073 2 8.17774 6.1647 1.59468 0 0 0 0.0372157 
3679 2 8.02615 5.07906 0.493614 0 1 2 0.0200002 
3526 2 9.45276 8.49359 3.02696 -1 0 0 0.015052 
460 1 1.80391 0.135756 4.44854 0 1 0 0.0483475 
3814 2 8.82807 2.96299 0.174225 -1 0 2 0.0257195 
2497 1 8.58919 5.90847 0.877203 0 0 0 0.00181897 
1215 1 8.52197 5.04163 1.38149 0 0 1 0.011951 
23 1 7.45944 6.74343 4.64387 0 0 0 0.112174 
2711 1 2.35696 1.83992 0.0743776 1 1 1 0.0164996 
1077 1 0.725999 6.72705 0.979198 0 0 0 0.0141576 
17 1 1.46378 7.55835 0.990755 0 0 1 0.0705267 
1554 1 3.06553 3.07084 0.056716 1 0 0 0.0621747 
2250 1 1.77287 6.56979 1.14672 1 0 0 0.0398256 
2303 1 2.21031 7.73809 0.272167 1 1 0 0.0297882 
3731 2 2.28636 7.90631 1.30391 0 0 0 0.0116925 
759 1 2.49729 6.70462 0.228614 0 0 1 0.00883488 
1830 1 2.72045 7.15297 1.09991 0 0 0 0.0122433 
1252 1 7.53459 0.582872 0.279632 0 1 1 0.0637425 
961 1 4.35916 6.38698 0.56639 0 1 1 0.0469801 
3878 2 3.26073 6.44636 0.674583 0 0 2 0.0220127 
543 1 3.78717 7.13646 0.988932 0 0 1 0.0578928 
3304 1 2.51378 7.4012 4.68925 1 0 0 0.0297704 
985 1 5.52297 6.52158 0.464339 0 0 1 0.0440196 
270 1 4.85218 7.21627 0.872596 0 0 0 0.0943256 
1191 1 6.45304 7.75889 0.90291 0 0 0 0.0877975 
4287 2 5.75324 7.12516 1.00984 0 0 0 0.101186 
1305 1 6.14788 0.0324305 3.66511 0 1 0 0.0437554 
1963 1 5.49722 7.84552 0.268857 0 0 1 0.0346267 
3539 2 7.24312 6.60435 0.426161 0 0 1 0.0366675 
1101 1 7.94957 6.83908 0.97717 0 0 1 0.0577393 
1364 1 7.40604 7.55763 0.464006 0 0 0 0.0302986 
1222 1 6.77833 6.85458 1.20765 0 0 0 0.0395325 
1980 1 7.46084 7.6762 1.56332 0 0 0 0.0430163 
1422 1 6.11096 9.40729 4.65519 0 0 1 0.0264848 
2416 1 8.66818 7.49493 0.714512 0 0 1 0.15827 
551 1 9.23055 6.63146 0.980784 0 0 0 0.0241569 
946 1 7.34597 2.40434 0.216604 0 1 1 0.0974008 
187 1 2.00724 3.20967 0.224545 0 0 0 0.0162026 
646 1 1.07789 8.4879 0.666329 0 0 1 0.044614 
3126 1 0.359455 9.15074 1.16233 1 0 1 0.00391379 
3889 2 7.58464 9.43513 1.16116 0 -1 1 0.0372288 
121 1 2.1263 8.74275 1.11984 0 0 0 0.069372 
2833 1 2.78216 8.6961 0.20468 1 0 1 0.0347085 
959 1 3.03074 8.1573 1.06202 0 0 0 0.0342651 
998 1 3.13578 9.19576 1.11157 0 0 1 0.0129058 
3612 2 6.33943 0.45362 4.71384 0 0 0 0.001953 
645 1 4.12104 8.10917 1.19487 0 0 1 0.120104 
203 1 3.81703 8.77339 0.461002 0 0 1 0.00779539 
3168 1 1.53809 7.5868 4.59532 1 0 0 0.0191243 
228 1 5.25574 9.36421 1.38079 0 0 0 0.0133201 
2263 1 4.80322 8.67487 0.630585 0 0 0 0.0200679 
1120 1 5.17447 8.13529 1.46378 0 0 0 0.084949 
3064 1 6.07073 8.73659 0.527396 1 0 0 0.0289815 
204 1 6.21 8.65825 1.56947 0 0 0 0.167202 
3797 2 7.59736 0.107806 1.01274 0 1 -1 0.0417815 
3629 2 7.07041 8.37198 1.86846 0 0 0 2.13269 
1613 1 7.07205 8.70296 1.01535 0 0 1 0.0160947 
2757 1 7.5275 9.26324 0.232852 0 0 0 0.113995 
3412 1 1.82409 0.338024 3.39641 1 1 0 0.0390858 
2626 1 8.08741 8.41772 0.840499 0 0 0 0.209243 
1908 1 9.10214 8.37786 1.06196 0 0 0 0.0108992 
1192 1 6.1512 5.70281 4.69779 0 0 1 0.0525913 
768 1 1.69379 3.8522 4.70517 0 1 0 0.0154839 
580 1 5.4863 9.57397 0.303247 0 0 1 0.0239742 
2105 1 6.84765 3.90231 4.70351 0 0 0 0.0126759 
2551 1 0.645 0.704324 1.8786 1 0 0 0.076852 
3279 1 0.963845 0.676403 2.8446 1 1 0 0.0706784 
597 1 1.141 1.54228 2.23956 0 0 0 0.0286196 
993 1 0.589092 1.57181 3.17065 0 1 0 0.0524681 
1362 1 8.52803 9.07458 0.0415602 0 0 0 0.0685654 
630 1 2.28053 9.43904 4.69281 0 0 0 0.0581709 
3011 1 1.96538 1.8049 1.64116 1 0 0 0.0930442 
2595 1 2.02367 0.829549 2.36298 0 0 0 0.0244261 
2565 1 1.63788 1.45898 3.15233 1 0 0 0.0292593 
1262 1 2.62106 1.6241 2.72311 0 1 0 0.0602291 
950 1 3.03588 0.924046 2.09131 0 1 0 0.0691736 
1238 1 2.90179 0.504823 3.06639 0 0 0 0.0475591 
4130 2 3.97669 0.864069 2.17427 0 0 -1 0.0212072 
3430 1 4.70175 1.36287 2.31048 1 1 1 0.0152364 
3272 1 3.92445 0.823286 3.09857 1 1 0 0.0264563 
416 1 4.79763 0.359897 2.80901 0 1 1 0.0442617 
1875 1 5.3697 0.589248 1.77974 0 1 1 0.0166255 
3905 2 5.40515 1.06606 2.76633 1 1 0 0.0569887 
2405 1 6.09119 1.35158 2.25171 0 1 0 0.0583669 
27 1 5.93781 0.329375 2.69127 0 1 0 0.079508 
2689 1 6.12829 1.12315 3.26081 1 0 0 0.0210365 
3459 2 6.93024 1.213 2.80218 0 0 0 0.0458143 
1032 1 6.99748 0.557748 2.21107 0 0 0 0.0480121 
820 1 7.83893 1.23017 2.66001 0 1 0 0.0683127 
626 1 1.34128 6.91181 0.166001 0 0 0 0.0622006 
1863 1 8.79201 0.902088 1.93861 0 1 0 0.0454527 
1231 1 9.04157 0.389884 2.75795 0 0 1 0.0254002 
3639 2 8.69435 1.23475 2.8961 0 0 1 0.0235822 
2004 1 0.1505 0.143652 0.0711509 1 0 1 0.0363513 
89 1 1.08651 2.35996 1.57544 0 0 -1 0.0712715 
3991 2 9.63996 6.11742 4.25309 0 1 1 0.0315267 
1234 1 0.209758 2.78583 1.97011 0 0 0 0.079019 
2910 1 1.00086 2.4755 2.87303 1 0 1 0.0324348 
4068 2 0.511892 3.26357 2.58371 1 0 -1 0.0589971 
1647 1 1.30657 3.23049 2.14755 0 0 0 0.0180301 
2494 1 9.62696 4.1891 2.16099 0 0 0 0.0620331 
288 1 2.74909 3.17038 1.99632 0 1 0 0.0374993 
3586 2 1.96048 2.69231 1.54936 0 0 1 0.123329 
636 1 2.08755 2.54982 2.43453 0 0 0 0.0718625 
3377 1 3.00776 2.90836 3.05169 1 1 1 0.0794582 
3319 1 2.95711 2.01695 1.77874 1 1 0 0.0224395 
3952 2 4.28189 1.66461 3.17124 1 1 0 0.0245493 
1123 1 3.68001 1.68926 2.49307 0 0 0 0.00447192 
538 1 3.73727 2.66831 2.0433 0 0 0 0.0304699 
610 1 4.63321 2.3983 2.54861 0 0 0 0.0310812 
4097 2 5.03815 3.06259 2.92184 0 0 1 0.0293133 
527 1 5.25373 2.11876 1.80017 0 0 0 0.0283046 
427 1 6.31476 2.35424 1.77739 0 1 0 0.0329974 
699 1 5.5337 1.97725 2.80736 0 0 1 0.0135042 
1026 1 5.71728 2.93559 2.36791 0 0 0 0.0280941 
354 1 7.09278 1.63649 2.00347 0 1 0 0.110649 
4141 2 7.8374 2.57434 2.12065 0 2 0 0.00717114 
2060 1 6.57584 2.06913 2.9019 0 0 0 0.0326297 
753 1 7.0743 2.88963 2.30907 0 0 1 0.0219559 
2422 1 7.6878 2.34992 3.0108 0 1 1 0.0193496 
1250 1 9.22856 2.13153 1.80063 0 1 0 0.0111182 
706 1 8.60259 2.03178 2.65166 0 0 0 0.0244374 
4165 2 9.6352 7.51182 2.48194 0 0 1 0.0135151 
3921 2 8.7772 2.85752 2.42704 0 1 -1 0.0418379 
1644 1 9.10414 1.40479 0.0345453 0 0 1 0.0223264 
1140 1 3.29106 7.56961 0.277611 0 0 0 0.0468964 
1294 1 0.417984 3.96899 2.12991 0 1 0 0.09968 
589 1 0.480959 4.81385 2.99645 0 0 0 0.0758207 
718 1 4.40172 6.12896 4.69166 0 0 0 0.0124409 
402 1 1.10057 3.82252 3.02997 0 0 0 0.107501 
3556 2 2.10897 3.73601 1.6859 0 1 1 0.0285306 
613 1 2.12918 3.59307 2.68865 0 0 -1 0.134461 
2897 1 1.61147 4.23967 2.12849 1 1 1 0.0939422 
2002 1 2.34302 4.53209 2.93599 1 0 -1 0.0842566 
256 1 2.78617 4.34536 1.84342 0 0 0 0.0303533 
1433 1 4.12334 3.31069 2.81641 0 1 0 0.0177829 
3153 1 3.17299 3.81529 2.6491 1 0 1 0.0303888 
1288 1 4.35252 4.21525 2.3241 0 1 0 0.0470463 
1181 1 4.74669 3.29162 1.96909 0 0 0 0.0366304 
3295 1 5.2074 3.8492 2.85209 1 1 0 0.0254056 
2213 1 5.27716 4.82107 2.53431 0 0 1 0.0711927 
2427 1 6.25752 3.90135 2.52719 0 1 0 0.00408956 
4235 2 7.82082 3.28832 3.2012 1 0 -1 0.0119725 
649 1 6.63236 4.48506 1.78109 0 0 1 0.0219883 
3508 2 7.24521 3.77747 2.09978 0 1 1 0.00129829 
1639 1 7.70857 4.48126 2.09944 0 0 0 0.0281722 
1277 1 7.26928 3.87759 2.94415 0 0 -1 0.0463031 
1536 1 8.05954 3.37135 2.4007 0 0 0 0.021037 
3869 2 8.07888 4.13961 2.79667 0 0 -1 0.0462484 
533 1 8.65852 3.94714 1.73854 0 0 0 0.00349765 
1158 1 8.91055 3.78858 2.78257 0 0 0 0.0297864 
1035 1 8.71449 4.79192 2.41629 0 0 1 0.0313907 
1347 1 1.11566 6.11913 1.83053 0 1 -1 0.0474518 
2399 1 4.10783 9.5148 1.30257 0 0 0 0.0156076 
3095 1 0.851365 5.04739 1.93429 1 0 0 0.104891 
829 1 0.525896 5.92278 2.66269 0 0 0 0.0397393 
3608 2 1.37833 5.73909 2.66436 0 0 0 0.123884 
119 1 1.53316 5.07221 3.21277 0 0 1 0.0431579 
118 1 2.0199 5.27689 2.24381 0 0 0 0.0244566 
99 1 2.11857 5.94585 3.16394 0 0 0 0.0253407 
633 1 2.15348 6.31628 2.10653 0 0 0 0.0276399 
3532 2 2.6879 5.34681 2.77908 0 1 0 0.0398754 
86 1 3.01304 5.37324 1.91408 0 0 0 0.027158 
1004 1 3.36536 4.903 2.72027 0 0 1 0.0689238 
1994 1 3.94052 5.68009 2.05891 0 0 0 0.0565401 
64 1 4.3717 5.11234 2.90484 0 0 -1 0.0558859 
875 1 3.04152 6.15117 2.70856 0 1 1 0.0602359 
157 1 4.36772 6.14445 2.92251 0 0 1 0.0328749 
3520 2 3.69357 5.62168 3.08419 0 0 0 0.0317118 
1139 1 4.78273 4.99692 1.54137 0 0 0 0.0209388 
3037 1 5.09239 5.85 2.14451 1 0 0 0.0094617 
525 1 5.81437 5.17112 1.78634 0 0 0 0.0314754 
4053 2 6.13325 4.8478 2.45038 0 0 -1 0.042224 
827 1 6.11885 5.63647 2.70594 0 0 0 0.0159671 
3575 2 6.42107 6.39767 3.04081 0 1 0 0.00510333 
1083 1 7.85384 4.94907 3.06393 0 0 0 0.0172386 
662 1 6.91833 5.55744 1.84676 0 0 1 0.0400583 
635 1 6.8264 5.01728 2.94965 0 0 0 0.172553 
579 1 7.24378 6.01083 3.00929 0 0 0 0.130221 
1628 1 7.93893 5.53621 2.18672 0 0 0 0.0511734 
3475 2 8.0973 5.79925 3.30286 0 0 -1 0.141695 
724 1 4.12106 9.23241 3.89381 0 0 0 0.0515146 
1040 1 8.98056 5.94816 1.93212 0 0 1 0.00248753 
412 1 0.218613 1.48167 4.26007 0 1 1 0.0425392 
1156 1 8.91855 5.68124 2.91395 0 0 0 0.0354698 
2468 1 0.431898 7.12781 2.76941 1 0 0 0.11154 
3347 1 0.940653 7.21007 1.88364 1 0 0 0.00833143 
2790 1 1.31491 6.63758 2.71999 1 0 -1 0.034862 
273 1 1.42664 7.6909 2.81869 0 0 -1 0.108685 
3072 1 0.525243 8.08759 3.35858 1 0 0 0.248388 
3920 2 0.617899 7.93423 2.51327 1 0 0 0.509645 
564 1 2.31374 7.03459 2.91855 0 0 0 0.0709792 
770 1 2.04196 7.30742 1.87386 0 0 1 0.0584841 
4203 2 2.26128 7.93405 2.79112 0 0 0 0.00615297 
559 1 2.80921 7.90454 2.09995 0 0 0 0.0211176 
3827 2 2.87118 6.94699 2.15418 0 1 1 0.00952887 
3256 1 4.30837 6.57565 1.63682 1 0 0 0.0684491 
3257 1 3.30665 6.45126 1.62176 1 0 0 0.0392448 
3741 2 4.57973 7.45694 1.6691 0 -1 2 0.225481 
2990 1 3.70707 7.38409 1.95185 1 0 0 0.0451503 
3855 2 3.7751 6.44168 2.39971 0 0 -1 0.13078 
895 1 4.52729 7.08188 2.51705 0 0 1 0.0488654 
1530 1 3.38267 7.08984 2.8572 0 0 1 0.0518884 
3638 2 3.53888 8.05458 2.48003 0 0 0 0.0546822 
126 1 5.38818 7.72189 2.41149 0 0 0 0.050606 
832 1 5.38145 6.83475 1.84433 0 0 0 0.0397556 
556 1 5.52196 6.50447 2.93463 0 0 0 0.0128639 
224 1 6.49654 6.49419 2.18107 0 0 0 0.0476396 
1602 1 6.20973 7.54434 1.88469 0 0 0 0.119235 
1410 1 6.12817 7.31354 3.04255 0 0 0 0.0335617 
1068 1 7.56068 6.58781 1.99587 0 0 0 0.0598545 
1160 1 7.07453 7.28329 2.52194 0 0 1 0.052846 
3953 2 7.95338 7.4581 2.28111 0 0 -2 0.0149842 
1438 1 8.23566 6.45686 2.77402 0 0 0 0.0648951 
2840 1 9.32222 7.50862 1.66559 0 0 0 0.0237257 
1539 1 8.50323 6.95014 1.81951 0 0 0 0.024285 
1652 1 8.70217 7.76403 2.72003 0 0 1 0.0179483 
1388 1 9.2288 6.75836 2.59914 0 0 1 0.0220636 
1141 1 4.99326 4.55452 4.68561 0 0 0 0.0196295 
3547 2 8.69197 7.04217 3.25067 -1 1 0 0.0019298 
2566 1 1.35138 9.22066 1.75282 1 0 0 0.00539222 
18 1 0.8979 8.2087 1.75406 0 0 0 0.0190662 
4174 2 0.540163 9.26749 3.03258 1 0 0 0.00490125 
742 1 1.03029 8.67498 2.71083 0 0 1 0.00917234 
4118 2 5.80204 9.55884 2.04158 1 1 1 0.0109259 
12 1 0.32691 7.72324 0.990991 0 0 0 0.0464958 
136 1 1.89788 8.40597 2.05266 0 0 0 0.0132279 
3964 2 1.95572 9.19672 2.48181 0 0 0 0.00780107 
4284 2 2.70964 8.70032 1.72301 0 0 2 0.0189573 
2635 1 2.75509 8.88364 2.55963 1 0 0 0.028302 
665 1 5.70746 8.29069 3.33127 0 0 1 0.048556 
3973 2 4.5903 8.83041 1.69347 0 0 -1 0.0401436 
144 1 3.61039 8.7115 1.89827 0 0 0 0.0144653 
644 1 4.37517 8.11151 2.23675 0 0 1 0.0884436 
3269 1 3.84211 8.78816 2.94905 1 0 0 0.00786156 
774 1 4.51317 9.51051 2.26232 0 0 0 0.0365551 
3815 2 4.84552 8.1268 2.98882 0 1 0 0.0854533 
307 1 5.29204 8.8375 2.26369 0 0 0 0.0685389 
3583 2 6.41479 8.70394 3.27081 -1 0 1 1.19753 
1016 1 6.39235 9.32567 2.6055 0 0 0 0.0170931 
29 1 7.14627 5.23883 0.179728 0 0 0 0.0524859 
78 1 0.210024 1.68384 1.64848 0 0 0 0.0208848 
1752 1 7.55644 8.23361 2.5595 0 0 0 0.0647412 
1832 1 6.52798 8.27497 2.53856 0 0 0 0.699957 
1442 1 7.78038 9.01243 1.90111 0 0 0 0.0741119 
4279 2 7.20885 9.02224 2.62801 1 0 0 0.046399 
1529 1 6.90202 7.89758 3.46126 0 0 0 0.415618 
2447 1 8.85337 8.3348 3.58135 0 0 0 0.00582479 
1134 1 8.40919 8.04617 1.75858 0 0 1 0.020429 
4223 2 8.70292 8.90686 1.67184 1 0 1 0.0314143 
1142 1 8.48852 8.84016 2.70914 0 0 1 0.0785678 
697 1 2.37344 9.56851 1.73859 0 0 0 0.0343771 
751 1 9.39527 8.41405 2.14733 0 0 1 0.00220823 
4186 2 9.50699 1.33081 1.41996 0 1 1 0.0106998 
107 1 1.28042 1.08982 4.06538 0 0 0 0.110999 
3724 2 8.25539 7.0521 4.79068 0 0 0 0.0644506 
1218 1 0.0771577 4.61552 1.39753 0 0 2 0.0830067 
3410 1 2.3871 1.00387 3.88251 1 1 0 0.0307928 
43 1 4.37739 7.88221 0.0977292 0 0 0 0.0215733 
4194 2 4.30869 0.408703 3.75578 1 1 1 0.108782 
401 1 3.54082 0.724969 4.07586 0 1 0 0.0214878 
627 1 4.52915 0.817515 4.51074 0 0 0 0.0485162 
355 1 4.20364 1.71935 4.0945 0 1 0 0.064728 
1260 1 8.41032 9.43137 1.06565 0 0 0 0.144665 
2995 1 1.79717 8.50135 4.29531 1 0 0 0.0160904 
904 1 4.95099 1.23337 3.48067 0 1 2 0.0674249 
3947 2 3.29291 7.73088 4.57101 1 0 1 0.0381339 
4038 2 5.44654 0.455592 3.44056 0 1 0 0.0375407 
3994 2 0.11693 4.28591 4.56634 1 0 0 0.164554 
3143 1 5.65725 0.755604 4.18765 1 0 0 0.0301432 
383 1 7.10134 0.460102 3.29252 0 1 1 0.0166135 
1805 1 7.75191 0.972668 4.471 0 1 -1 0.0829255 
1326 1 6.66772 1.02948 4.20767 0 1 -1 0.0270325 
1304 1 7.38101 1.41713 3.53796 0 1 0 0.0802249 
3226 1 8.06386 9.35287 3.93216 1 0 0 0.0644596 
730 1 5.91574 9.29304 3.58697 0 0 1 0.0473691 
2177 1 8.29891 0.698149 3.49783 0 0 0 0.0320581 
2165 1 9.521 9.24347 1.51951 0 0 1 0.0207776 
1557 1 9.29523 1.12188 3.52468 0 0 0 0.0250512 
1227 1 8.90152 0.67004 4.44926 0 0 1 0.0197579 
2861 1 9.54647 7.54107 3.41106 0 0 0 0.00330964 
518 1 1.49592 2.81405 4.56441 0 0 0 0.0111332 
3659 2 0.232342 2.23675 3.73122 1 1 -1 0.127505 
814 1 1.20073 2.14668 3.92192 0 1 0 0.0474485 
2675 1 0.480514 3.059 3.7989 1 0 1 0.0594128 
4184 2 2.59161 3.6901 3.4551 1 1 -1 0.592011 
2537 1 1.70104 3.04491 3.48449 1 0 -1 0.0581839 
1396 1 2.06517 1.76419 4.50627 0 1 0 0.0353693 
932 1 2.2555 2.2382 3.61751 0 1 1 0.087502 
3340 1 3.16585 2.48524 4.18005 1 1 0 0.00890977 
151 1 3.32545 1.64982 3.53387 0 0 0 0.0112378 
607 1 3.90228 2.49349 3.3528 0 0 0 0.0128895 
778 1 4.17656 2.70611 4.31742 0 1 0 0.0381009 
185 1 5.2272 1.70426 4.66494 0 0 1 0.0187496 
2024 1 5.36547 2.72206 4.38886 0 0 -1 0.00558255 
1736 1 4.8994 2.31975 3.54762 0 0 1 0.00541812 
1721 1 5.75339 3.07158 3.4527 0 0 0 0.0104642 
909 1 5.90198 1.96642 3.90791 0 1 0 0.0175229 
709 1 6.27386 3.156 4.37438 0 0 0 0.00320965 
1878 1 7.06443 9.28982 3.41431 0 0 1 0.0229572 
1566 1 6.87945 2.98813 3.34276 0 0 0 0.0277245 
3854 2 7.75065 2.02984 4.29804 1 0 -2 0.0567485 
215 1 6.92318 2.2042 4.04236 0 0 0 0.0286347 
2149 1 7.77663 2.94447 3.99824 0 0 0 0.0134682 
2644 1 0.835837 9.05893 4.78194 1 0 1 0.0228439 
517 1 5.61765 8.43685 4.44735 0 0 0 0.00633799 
1916 1 8.31412 1.76594 3.65733 0 1 1 0.0605813 
1694 1 6.40629 6.9891 0.20868 0 0 1 0.00942637 
1504 1 3.18152 1.53543 4.56501 0 1 0 0.0352394 
1624 1 8.62014 2.94952 3.27547 0 0 -1 0.00212321 
2532 1 0.828066 0.0916272 3.8601 1 0 0 0.0774199 
1678 1 9.32923 2.12013 3.66946 0 0 0 0.01765 
3717 2 8.68919 2.4013 4.04442 0 1 1 0.0743033 
3320 1 5.09595 9.43115 4.27664 1 0 0 0.0333057 
3993 2 1.23568 3.48918 4.0895 0 0 1 0.132652 
2733 1 0.678935 4.15864 3.89185 1 0 1 0.0652416 
198 1 2.45496 3.30385 4.22812 0 0 1 0.0674454 
1728 1 1.85182 4.11302 3.74059 1 0 1 0.0649867 
194 1 2.05944 4.78622 4.48859 0 0 1 0.0145733 
487 1 4.83827 9.01725 3.17061 0 0 0 0.0372008 
301 1 2.96787 4.38086 3.84874 0 1 0 0.0462023 
710 1 4.66773 8.2832 3.92059 0 0 0 0.0384225 
2380 1 4.42532 9.65003 0.185874 0 0 0 0.0211148 
3155 1 3.93213 4.24888 3.22652 1 0 1 0.0726769 
1404 1 4.72606 3.36311 3.65598 0 1 1 0.0406537 
2569 1 3.52242 3.47553 3.69787 1 0 0 0.0103166 
2989 1 4.09708 4.13033 4.24868 1 0 0 0.0357706 
2302 1 9.38026 5.33351 4.63043 0 0 0 0.0546809 
335 1 4.87133 4.57656 3.64853 0 1 -1 0.0883776 
2553 1 5.48821 3.89392 4.08039 0 0 -1 0.0109099 
1874 1 6.34657 3.88564 3.58522 0 1 0 0.0290211 
33 1 6.1366 4.68841 4.32079 0 0 -1 0.0110921 
977 1 0.206974 6.05102 4.0199 0 1 1 0.0222541 
1104 1 8.30971 2.15636 0.180795 0 0 0 0.0684951 
3247 1 3.69839 0.0601378 2.52449 1 1 0 0.047339 
3864 2 7.09137 3.52366 3.88504 0 1 -1 0.0487988 
1532 1 7.15186 4.48996 3.90749 0 0 0 0.00793451 
1143 1 8.08879 3.93174 3.68746 0 0 1 0.00158104 
3493 2 5.7739 4.3877 0.0324098 0 0 -1 0.645895 
1193 1 8.78409 3.37054 4.40804 0 0 1 0.0142162 
3006 1 8.73138 4.60404 4.6572 1 0 0 0.0137826 
3780 2 8.97825 3.69096 3.62377 0 0 2 0.0283815 
821 1 3.01771 8.0468 3.15327 0 0 0 0.0271954 
2528 1 8.79045 4.58449 3.47993 0 0 0 0.0287261 
748 1 9.52986 8.02007 4.45073 0 0 0 0.00488709 
4253 2 0.633356 5.51791 3.47332 1 0 0 0.025917 
3839 2 1.1497 6.08203 4.46109 0 1 1 0.0714899 
2727 1 1.13668 5.25012 4.19677 1 0 0 0.0505556 
40 1 1.23224 6.07197 3.59798 0 0 0 0.0029912 
3309 1 0.0985348 5.86127 1.24678 1 0 0 0.0197319 
4122 2 0.554966 6.51895 3.3379 1 -1 0 0.0614186 
3902 2 2.2806 5.0053 3.68124 1 0 1 0.00738014 
521 1 2.05984 5.78051 4.25677 0 0 0 0.0326298 
3640 2 2.783 6.4285 3.49707 0 -1 1 0.00248529 
221 1 2.88162 6.34465 4.43852 0 0 0 0.0084717 
1848 1 3.02537 5.19514 4.5873 0 1 -1 0.00591268 
1653 1 2.95338 5.55226 3.57295 0 0 0 0.0255237 
1645 1 3.4422 3.41466 4.76972 0 0 0 0.0360836 
3477 2 3.59457 5.83817 4.40151 0 -1 -2 0.0194102 
1392 1 3.90156 5.1312 3.82526 0 1 1 0.0104599 
3523 2 4.42032 5.85471 3.77301 0 0 1 0.100199 
1048 1 3.64864 6.32433 3.62246 0 0 0 0.0133492 
3141 1 5.22303 5.59375 3.27174 1 0 0 0.0386421 
1654 1 5.23149 5.47204 4.30525 0 0 0 0.0687975 
172 1 5.88623 4.73122 3.35346 0 0 0 0.103236 
600 1 2.71557 8.755 3.90452 0 0 0 0.000112291 
3600 2 7.87028 5.94739 4.5326 0 0 0 0.0759827 
4159 2 6.79827 6.18021 4.19678 0 0 0 0.130019 
1445 1 6.39318 5.57228 3.69366 0 0 1 0.118773 
4100 2 6.84624 5.14943 4.4903 1 0 1 0.0149351 
2108 1 7.41554 5.49647 3.95959 0 0 0 0.0834544 
3798 2 7.9756 4.77574 3.91292 0 1 -1 0.0607719 
540 1 4.73722 3.56451 4.81816 0 0 0 0.00294941 
465 1 1.90568 8.68814 3.21539 0 0 0 0.0209773 
3554 2 3.46749 4.49445 4.78111 0 1 2 0.0154462 
2037 1 8.50409 5.44782 4.02388 0 0 -1 0.0554468 
1876 1 8.05401 6.46057 3.78304 0 0 0 0.0836824 
3426 1 0.552346 7.94948 4.35685 1 0 0 0.0474643 
3044 1 8.49173 1.74351 4.68853 1 0 0 0.0613 
571 1 1.32752 9.45041 0.669666 0 0 1 0.00432441 
2119 1 0.717936 6.80843 4.57724 1 -1 1 0.0524335 
466 1 1.11648 7.15294 3.68401 0 0 1 0.0697768 
4240 2 1.32204 8.03123 3.68099 1 -1 0 0.0363525 
2929 1 7.73547 8.48646 3.5552 0 0 1 0.0369453 
2556 1 2.16697 7.75863 3.64112 1 0 1 0.0931321 
434 1 2.07975 6.71502 3.91166 0 0 0 0.0458292 
666 1 3.13153 7.17919 3.85443 0 0 0 0.00982411 
1244 1 4.11959 7.75693 3.1587 0 0 0 0.0318365 
979 1 0.0737644 0.826682 0.946873 0 1 0 0.0310013 
534 1 4.18158 7.14793 4.09504 0 0 0 0.0304077 
3763 2 4.1857 6.88698 3.25554 1 0 1 0.041451 
431 1 0.311754 2.43264 4.7662 0 1 0 0.0445142 
430 1 5.13393 7.43268 3.41858 0 0 0 0.0449778 
1275 1 5.19352 7.44633 4.50401 0 0 0 0.0114483 
766 1 4.96988 6.50266 3.804 0 0 0 0.0190176 
57 1 6.02167 6.48972 3.89794 0 0 0 0.00747805 
1988 1 6.14356 7.54973 4.07162 0 0 0 0.0172639 
1039 1 3.70189 8.32444 3.96741 0 0 1 0.00658341 
584 1 9.53696 1.45651 2.48164 0 0 0 0.0488764 
3041 1 6.97263 6.82428 3.58909 1 0 -1 0.0712596 
1705 1 7.67214 7.67632 4.25767 0 0 1 0.336978 
177 1 7.88873 7.4095 3.25679 0 0 0 0.0227734 
2685 1 9.227 6.40377 3.59056 0 0 0 0.0445695 
1453 1 8.69294 7.37673 4.05588 0 0 0 0.0129589 
201 1 2.6256 4.12361 0.109374 0 0 2 0.00773811 
3071 1 6.5554 8.61841 4.16875 1 0 0 0.0422328 
4137 2 1.49866 9.31269 4.2341 1 1 1 0.106516 
2169 1 0.994671 8.8775 3.76592 1 0 0 0.0576686 
787 1 7.63196 4.76241 4.81706 0 0 0 0.00461327 
541 1 6.75725 9.5329 1.65513 0 0 0 0.0728943 
1349 1 7.20631 9.48939 4.49095 0 0 -1 0.0279832 
938 1 0.593378 3.54583 4.74676 0 1 0 0.0557674 
205 1 3.24646 9.55607 3.35922 0 0 0 0.00500907 
4236 2 0.412482 2.03382 2.44342 1 0 0 0.0702434 
519 1 6.58628 9.57183 0.503921 0 0 0 0.0698142 
3092 1 3.38931 9.16713 4.66901 1 0 0 0.00860685 
4230 2 8.69112 6.65214 0.264338 1 0 0 0.066445 
1095 1 8.7808 6.33709 4.66312 0 0 0 0.027195 
3522 2 0.145084 1.61148 0.681429 0 0 0 0.0198188 
1722 1 7.91156 0.0728182 2.63085 0 0 1 0.0526797 
3096 1 1.36024 9.60526 3.00371 1 0 1 0.0268057 
818 1 0.552638 9.64738 2.18527 0 0 0 0.00583578 
2214 1 6.40498 6.84188 4.82472 0 0 1 0.0791315 
1081 1 9.71194 7.53015 0.663209 0 0 1 0.0501717 
705 1 9.55465 4.13574 0.294684 0 0 0 0.00346701 
648 1 7.83107 3.75252 4.71269 0 0 0 0.00179722 
1667 1 9.28241 2.52402 4.77934 0 0 0 0.026089 
550 1 4.39681 8.87662 4.82 0 0 0 0.0849405 
3871 2 6.32024 7.85107 0.00555834 0 0 0 0.0360481 
3024 1 0.843715 0.843993 5.79649 1 1 0 0.0416733 
3558 2 0.197623 1.22816 6.14954 1 0 1 0.0256393 
914 1 2.14918 0.0519943 8.30074 0 1 0 0.0284917 
2184 1 1.26025 0.102766 6.44425 1 0 0 0.0609549 
1688 1 7.68196 0.0537749 8.8315 0 0 0 0.0135447 
1276 1 2.00193 0.847755 6.12931 0 0 -1 0.0349642 
4300 2 1.53953 1.53734 5.72389 0 1 0 0.0734812 
2933 1 2.47235 1.54295 5.59753 0 1 0 0.0337568 
54 1 0.0440046 0.890748 7.57832 0 1 0 0.0272036 
1764 1 3.00884 0.674276 5.93717 0 1 -1 0.0609347 
4273 2 4.1938 0.913562 5.86554 1 1 0 0.0351308 
1720 1 3.70994 0.630722 5.18461 0 0 0 0.0606076 
578 1 3.46458 1.60042 5.84265 0 0 0 0.0446899 
3999 2 4.32551 8.70863 9.5 0 0 0 0.0227325 
582 1 4.9938 0.974553 5.4288 0 0 0 0.0169699 
471 1 4.98378 0.307405 6.18806 0 1 1 0.0060989 
417 1 5.77642 1.06999 6.16903 0 1 0 0.00318834 
2048 1 6.03324 1.22482 5.1328 0 0 -1 0.00416907 
2191 1 9.64646 5.85771 6.16599 0 0 0 0.0535955 
2201 1 7.10054 0.787297 5.32827 0 0 0 0.0232284 
880 1 6.61768 0.434792 6.2239 0 1 0 0.00993841 
1710 1 8.09632 1.21955 5.535 0 0 1 0.0679381 
756 1 9.13639 9.52979 5.43992 0 0 1 0.0674018 
286 1 7.40829 1.09393 6.41567 0 1 0 0.00850108 
1310 1 6.72502 1.64737 5.78088 0 1 0 0.0140569 
1036 1 9.17067 0.967456 5.47059 0 0 1 0.0511033 
1291 1 8.57599 0.683417 6.28495 0 1 0 0.0368881 
1861 1 8.19314 9.61344 5.98351 0 0 0 0.0244416 
2493 1 9.33885 1.35739 6.42679 0 0 0 0.0115885 
2256 1 9.61475 7.46881 6.03995 0 0 0 0.0203457 
4048 2 0.820918 2.57098 5.38854 1 1 0 0.0735788 
141 1 0.767655 1.84919 5.98118 0 0 0 0.0682716 
1527 1 0.190507 3.09824 5.66146 1 0 -1 0.1384 
154 1 1.24199 3.32271 5.55172 0 0 0 0.0889544 
3324 1 1.69402 2.39348 5.50216 1 1 0 0.111031 
3106 1 3.96325 5.60197 9.51856 1 0 0 0.0143035 
1521 1 2.11502 3.18865 6.2421 0 0 0 0.0651874 
3488 2 9.44061 7.50401 8.563 -1 0 -1 0.43414 
1131 1 2.80325 2.49598 6.02698 0 0 0 0.0666589 
2973 1 9.62844 5.11056 6.96678 0 0 0 0.00190606 
1069 1 4.60943 1.66619 6.06071 0 0 0 0.00406111 
248 1 4.69799 2.5478 5.21505 0 0 0 0.00843831 
83 1 3.9161 2.77446 6.07808 0 0 -1 0.0307651 
1425 1 3.46505 2.43967 5.15465 0 1 0 0.0206009 
3503 2 4.07253 3.21045 5.38063 0 0 1 0.00618777 
1801 1 5.0882 2.5912 6.30995 0 1 0 0.0165092 
3727 2 6.24966 2.01973 6.4514 0 1 -1 0.0458836 
881 1 5.6984 3.00819 5.46574 0 1 1 0.0219397 
2093 1 5.69463 2.00824 5.78808 0 0 0 0.0236551 
1082 1 6.67171 2.75542 5.86204 0 0 -1 0.0335679 
1117 1 7.5942 2.20205 5.75208 0 0 0 0.0164632 
1998 1 0.580553 0.0409888 7.75451 1 0 0 0.208884 
2097 1 8.7277 2.04773 5.68748 0 0 0 0.0206357 
3688 2 9.38039 2.6196 5.88922 0 0 2 0.0474916 
4301 2 8.17594 2.70051 6.12574 0 0 0 0.109545 
941 1 0.530891 4.14354 5.74136 0 1 0 0.149292 
2319 1 3.01809 0.968135 9.57127 0 0 -1 0.0311156 
1826 1 8.86098 8.20169 8.60321 0 0 -1 0.202069 
2937 1 1.35328 1.59567 9.52158 1 1 -1 0.0275167 
558 1 4.02499 7.9221 4.83922 0 0 0 0.0390173 
3747 2 1.99827 3.74698 5.51923 0 0 0 0.0369678 
389 1 1.71353 4.64556 5.56385 0 1 0 0.0345388 
719 1 2.51049 4.16971 6.0475 0 0 1 0.0165053 
1321 1 1.50396 3.99372 6.33181 0 0 0 0.07041 
1477 1 3.24985 3.53233 5.79718 0 1 0 0.0364102 
1237 1 3.57852 6.90931 4.88929 0 0 0 0.0383749 
1924 1 4.74336 3.42653 5.91056 0 0 0 0.0160475 
341 1 4.08083 4.12842 5.48659 0 1 0 0.0003169 
4042 2 3.88548 3.57821 6.36822 0 1 1 0.0051323 
4010 2 2.42359 2.53214 9.13287 0 0 -1 0.131814 
1074 1 5.11648 4.55817 5.72574 0 0 0 0.0146897 
4088 2 6.05595 4.43135 5.90782 1 0 -1 0.0542036 
1136 1 5.86495 4.08116 5.13472 0 0 0 0.0293758 
1565 1 5.62788 3.75657 6.20561 0 0 -2 0.0352981 
127 1 7.69425 3.28821 5.71512 0 0 0 0.00575816 
4117 2 6.46459 3.2911 5.17736 0 0 0 0.0184217 
1819 1 6.75751 3.80352 5.81766 0 0 0 0.000493356 
3970 2 7.43151 4.29281 5.55548 0 1 -1 0.0435979 
96 1 6.76479 4.94344 6.34777 0 0 0 0.0227835 
1261 1 7.57159 4.1562 6.43864 0 0 0 0.00408778 
1292 1 8.82481 3.17833 5.52958 0 0 0 0.084882 