ITEM: TIMESTEP
24000
ITEM: NUMBER OF ATOMS
4320
ITEM: BOX BOUNDS xy xz yz pp pp pp 
0 19.4065 0.09655
0 19.31 0
0 9.655 0
ITEM: ATOMS id type x y z ix iy iz msd_nonAffine 
3378 1 1.02931 0.53218 0.400167 1 1 1 0.00380015 
486 1 1.55393 0.744775 1.33816 0 1 1 0.0137381 
3493 2 6.04983 4.54695 0.0717074 0 0 -1 0.23581 
332 1 0.99735 1.54905 0.912261 0 1 0 0.00519005 
964 1 2.14228 0.507757 0.403045 0 1 1 0.0456536 
2357 1 9.0272 5.06159 0.164087 0 0 0 0.0127701 
3697 2 1.91535 1.36654 0.721676 1 1 1 0.0227391 
135 1 2.85985 1.5092 0.855266 0 1 1 0.0512144 
1553 1 4.28106 0.73263 0.561801 0 0 0 0.0412049 
4065 2 3.67034 1.46172 0.542309 1 1 1 0.0170154 
1198 1 3.28462 0.525362 0.910407 0 0 1 0.101543 
868 1 3.77618 1.33356 1.4214 0 1 0 0.00471407 
3422 1 4.25017 0.472592 1.65301 1 1 0 0.139493 
1493 1 4.78043 1.40794 1.21498 0 1 1 0.0285482 
4074 2 5.07221 0.670151 0.95019 0 1 1 0.0410844 
3203 1 5.40858 1.13977 0.31426 1 0 0 0.00421044 
1264 1 6.04425 1.27075 1.14856 0 1 0 0.0281334 
376 1 5.88326 0.319778 0.726821 0 1 0 0.0300304 
3758 2 6.24837 0.622254 1.61583 0 0 1 0.0346533 
663 1 6.89528 0.593255 1.06943 0 0 0 0.0621402 
963 1 6.52941 1.21757 0.210227 0 1 1 0.0473198 
4222 2 6.62796 0.381749 0.27721 1 0 -1 0.00306508 
3797 2 7.56461 0.047099 1.02344 0 1 -1 0.071986 
787 1 7.68365 4.81202 4.72736 0 0 0 0.00884385 
2154 1 7.75806 0.829405 1.53069 0 0 1 0.0513064 
4078 2 8.19742 1.28473 0.348372 0 1 0 0.115752 
1783 1 9.41601 0.450224 0.909104 0 1 0 0.023732 
1177 1 8.88699 1.37209 0.813098 0 0 1 0.0374203 
2805 1 8.35097 0.472379 0.713486 1 1 1 0.0228576 
3124 1 9.449 3.15596 1.78213 0 0 1 0.0063661 
3569 2 0.348589 6.44685 0.288746 0 0 2 0.111869 
4241 2 9.21981 9.3814 0.676553 0 0 1 0.00311243 
1305 1 6.15386 0.0433586 3.58287 0 1 0 0.0257495 
2926 1 1.59817 2.2906 0.618112 1 1 1 0.00789493 
2794 1 0.465644 2.5043 0.983148 1 0 0 0.00945212 
3597 2 0.988023 3.16258 1.29739 0 1 0 0.0563571 
1230 1 9.64593 5.35114 3.63853 0 0 1 0.0301709 
885 1 2.61194 2.60087 0.912592 0 1 1 0.0153109 
3724 2 8.46571 7.03589 4.82166 0 0 0 0.0443626 
512 1 1.80295 3.18449 1.10594 0 0 0 0.0170058 
3535 2 3.23468 3.14157 1.21225 0 1 0 0.00167945 
4129 2 5.37805 0.372271 4.77299 0 0 0 0.00753552 
3224 1 4.53641 1.94163 0.358253 1 1 0 0.00474464 
1822 1 3.61741 2.32129 0.964329 0 1 0 0.0248901 
1031 1 4.62817 2.48002 1.23325 0 0 0 0.0514544 
3604 2 4.07985 2.6728 0.240162 0 0 0 0.0129885 
4308 2 4.20857 1.96784 1.74229 0 0 1 0.0616287 
640 1 4.912 3.0365 0.401967 0 0 1 0.0124301 
1704 1 5.97613 2.98748 0.193732 0 0 1 0.00564188 
3903 2 8.94692 0.521571 0.0221842 0 1 -1 0.0581022 
100 1 5.58633 3.04579 1.28805 0 0 0 0.0167435 
951 1 5.53128 2.16439 0.699302 0 1 1 0.0109082 
1055 1 7.40254 1.56244 0.827794 0 0 0 0.0511877 
3784 2 6.75776 1.54282 1.48214 0 0 -1 0.0712825 
629 1 6.53795 2.22057 0.707899 0 0 0 0.0271286 
1563 1 7.41133 2.64409 1.31526 0 0 0 0.0115265 
576 1 8.08099 3.2224 0.599676 0 0 0 0.0312719 
1632 1 8.19146 1.76018 1.48624 0 0 0 0.0349792 
3737 2 8.13646 2.35374 0.831116 1 1 0 0.0277459 
3175 1 9.12913 2.47002 0.672332 1 0 1 0.0198838 
1395 1 8.49709 2.75834 1.56691 0 1 1 0.0288225 
2451 1 8.9163 8.83844 4.6883 0 0 1 0.0537627 
790 1 2.36817 0.139512 1.49431 0 1 0 0.0780673 
3383 1 1.00192 3.20442 0.349291 1 0 1 0.073983 
547 1 1.05466 4.02732 1.23976 0 0 1 0.0332963 
2997 1 0.366835 4.25813 0.37512 1 0 0 0.00749392 
72 1 1.49267 4.0562 0.254237 0 0 0 0.0582678 
2000 1 8.09482 9.63142 2.9939 0 0 0 0.00136385 
3376 1 1.89131 6.51487 4.69086 1 1 -1 0.0225175 
2007 1 1.96515 4.51636 1.08209 1 0 0 0.0480756 
1717 1 9.66186 1.53344 4.48543 0 0 1 0.0208775 
3150 1 2.71141 3.81456 0.984617 1 0 0 0.0232142 
1485 1 4.07371 3.33619 0.860026 0 1 1 0.0191015 
380 1 4.55893 3.98912 0.136572 0 1 1 0.00562211 
34 1 3.58023 4.15652 0.55656 0 0 0 0.00471942 
1056 1 4.88266 4.04674 1.20132 0 0 0 0.0501873 
965 1 3.66137 3.78686 1.71487 0 0 1 0.0233122 
3915 2 5.35974 3.74657 0.525653 0 1 1 0.0477284 
555 1 5.4084 4.7253 0.704275 0 0 0 0.00262247 
1214 1 6.11834 3.99418 0.757138 0 0 1 0.0281972 
910 1 5.69102 4.06494 1.79809 0 1 0 0.0461976 
810 1 6.94865 3.25623 0.555591 0 1 1 0.00992945 
1353 1 0.656003 0.616157 4.59174 0 1 0 0.0346817 
981 1 7.30594 4.30461 0.220164 0 1 0 0.00609409 
3546 2 6.94396 4.09535 0.960412 0 0 1 0.0188678 
2081 1 7.68478 3.67692 1.3866 0 0 0 0.00200191 
2050 1 6.58505 3.42686 1.52905 0 0 0 0.00434625 
303 1 9.42143 2.49304 2.68174 0 1 0 0.024562 
639 1 9.04456 3.51008 0.786143 0 0 0 0.0155073 
1153 1 9.3919 4.6119 1.0824 0 0 0 0.00274092 
1946 1 8.36367 4.25037 0.593467 0 1 0 0.00935643 
3094 1 1.03108 4.98336 0.823795 1 0 0 0.0231109 
2010 1 1.06894 5.9906 0.500552 1 0 0 0.00448641 
979 1 0.190245 0.912427 1.01702 0 1 0 0.0274316 
2399 1 4.21061 9.4519 1.0673 0 0 0 0.0792574 
4233 2 3.64325 0.0781816 3.47332 1 1 1 0.0143219 
4081 2 1.94011 6.06123 0.452669 1 1 0 0.044959 
1976 1 1.76083 5.64993 1.20314 0 0 1 0.0298301 
2670 1 2.04377 5.21819 0.196852 1 0 1 0.0519657 
1042 1 2.70806 6.05832 0.935144 0 0 1 0.0461207 
1233 1 2.83923 4.99274 0.814223 0 0 1 0.0158387 
738 1 9.64158 9.38286 2.57238 0 0 0 0.021154 
3059 1 3.77318 4.78099 1.30499 1 0 0 0.0331613 
2654 1 4.43348 4.89553 0.609553 1 0 1 0.00686388 
138 1 3.8602 5.78514 0.828082 0 0 1 0.0220014 
3671 2 3.57278 5.07756 0.399086 0 0 1 0.00200394 
3034 1 4.89409 5.77227 1.00434 1 0 0 0.00448353 
3971 2 5.73649 5.58375 0.667671 0 0 0 0.0387282 
146 1 6.58048 6.01057 0.504868 0 0 0 0.0245462 
655 1 5.98868 6.04359 1.40483 0 0 0 0.0357237 
23 1 7.69342 6.85714 4.45105 0 0 0 0.00416986 
2653 1 7.47129 4.76046 1.0976 0 0 1 0.0178825 
537 1 6.48352 4.92638 0.737267 0 0 0 0.0315791 
80 1 7.44419 5.77873 0.867877 0 0 -1 0.0199246 
4073 2 8.2454 5.92109 1.49746 0 0 0 0.1436 
3679 2 7.86267 5.04201 0.411131 0 1 2 0.0885027 
1412 1 8.413 0.0421898 1.68972 0 1 0 0.0275531 
541 1 6.73565 9.58687 1.7861 0 0 0 0.0721529 
2736 1 0.212306 3.73944 3.1447 1 0 0 0.0113925 
2497 1 8.6338 5.83094 0.762537 0 0 0 0.0191743 
1215 1 8.51396 5.06367 1.35361 0 0 1 0.0163856 
3309 1 0.0846599 5.61879 1.27809 1 0 0 0.0223778 
1252 1 7.4806 0.515208 0.142142 0 1 1 0.00856827 
1077 1 0.835729 6.89658 0.891957 0 0 0 0.0219343 
17 1 1.48298 7.63279 1.0939 0 0 1 0.0217332 
630 1 2.4416 9.42018 4.61511 0 0 0 0.0607568 
2250 1 1.83273 6.67302 1.15104 1 0 0 0.0304389 
2303 1 2.16659 7.73314 0.350835 1 1 0 0.0109937 
3731 2 2.36895 7.8684 1.39197 0 0 0 0.0140951 
759 1 2.56396 6.71068 0.140282 0 0 1 0.00611924 
1830 1 2.85959 7.13901 1.2471 0 0 0 0.0288575 
2105 1 6.89557 3.90267 4.66846 0 0 0 0.0166573 
961 1 4.49639 6.51375 0.445522 0 1 1 0.0119265 
3878 2 3.24104 6.62562 0.697212 0 0 2 0.00256648 
543 1 3.81827 7.25044 0.770091 0 0 1 0.026568 
3626 2 5.8635 1.74029 0.0516182 0 0 0 0.0451804 
985 1 5.56887 6.52862 0.594683 0 0 1 0.00976421 
270 1 4.89054 7.37466 0.770607 0 0 0 0.113551 
1191 1 6.51686 7.89124 0.965617 0 0 0 0.0321014 
4287 2 5.75605 7.40651 0.895906 0 0 0 0.0587196 
1694 1 6.37661 7.12345 0.192028 0 0 1 0.00802727 
1963 1 5.63895 7.9992 0.250118 0 0 1 0.0671481 
3539 2 7.4138 6.46618 0.270587 0 0 1 0.220541 
1101 1 8.06639 6.67489 0.787014 0 0 1 0.0323264 
1364 1 7.42807 7.48966 0.3338 0 0 0 0.0189599 
1222 1 6.78027 6.79693 1.24009 0 0 0 0.0699562 
1980 1 7.50492 7.51798 1.62604 0 0 0 0.141663 
305 1 0.149803 3.53984 1.17476 0 1 -1 0.0638892 
2416 1 8.51072 7.63605 0.804182 0 0 1 0.034136 
551 1 9.1418 6.72868 0.862363 0 0 0 0.0210699 
2644 1 0.951053 8.93756 4.73024 1 0 1 0.0420399 
4236 2 0.142194 1.85247 2.59442 1 0 0 0.0144183 
646 1 1.00613 8.34515 0.477757 0 0 1 0.0138067 
3126 1 0.350049 9.14701 1.30146 1 0 1 0.00865013 
580 1 5.59506 9.55937 0.255824 0 0 1 0.0190598 
121 1 2.05632 8.63621 1.08417 0 0 0 0.0433286 
2833 1 2.71668 8.64322 0.318321 1 0 1 0.00766708 
959 1 3.1822 8.14016 1.12009 0 0 0 0.0131566 
998 1 3.22287 9.15371 1.13182 0 0 1 0.00555471 
3694 2 9.17811 0.235847 3.52994 0 1 1 0.00494556 
645 1 4.25513 8.1694 1.21445 0 0 1 0.0393384 
203 1 3.80691 8.74861 0.371453 0 0 1 0.024312 
2214 1 6.59903 6.86913 4.71394 0 0 1 0.00250224 
228 1 5.41906 9.22924 1.3485 0 0 0 0.116653 
2263 1 4.85067 8.65955 0.57106 0 0 0 0.011109 
1120 1 5.39701 8.08897 1.35773 0 0 0 0.0719551 
3064 1 6.17917 8.80972 0.624662 1 0 0 0.0722647 
204 1 6.20784 8.64525 1.73319 0 0 0 0.276005 
3840 2 9.47347 4.99932 2.86965 0 0 0 0.0367151 
3629 2 7.49386 8.01521 0.954708 0 0 0 0.257182 
1613 1 7.08298 8.71633 1.22192 0 0 1 0.0662057 
2757 1 7.71059 9.46716 0.335448 0 0 0 0.00806765 
3412 1 2.10367 0.188034 3.2956 1 1 0 0.0192486 
2626 1 8.09498 8.57118 0.864023 0 0 0 0.10559 
1908 1 9.16342 8.54895 0.904311 0 0 0 0.0632364 
3764 2 0.157634 5.22634 2.3962 0 0 2 0.0244764 
1095 1 8.78658 6.26352 4.61866 0 0 0 0.0271569 
3247 1 3.7755 0.122367 2.53688 1 1 0 0.0440366 
1221 1 9.66093 5.19887 2.0849 0 0 1 0.0227864 
2551 1 0.622033 0.690399 1.9317 1 0 0 0.0870487 
3279 1 1.13874 0.594977 2.81277 1 1 0 0.00762352 
597 1 1.21503 1.46256 2.16051 0 0 0 0.0108401 
993 1 0.63331 1.44314 3.17684 0 1 0 0.0101649 
4230 2 8.84768 6.40985 0.0963797 1 0 0 0.06864 
697 1 2.36237 9.46028 1.78257 0 0 0 0.0102419 
3011 1 2.03132 1.67559 1.54758 1 0 0 0.0408867 
2595 1 2.07932 0.69674 2.32508 0 0 0 0.000400712 
2565 1 1.78636 1.46852 3.0652 1 0 0 0.00118862 
1262 1 2.66845 1.58807 2.65085 0 1 0 0.0407467 
950 1 3.10307 0.800027 2.0504 0 1 0 0.0148259 
1238 1 3.09014 0.603768 3.12946 0 0 0 0.0671403 
4130 2 3.93792 1.04575 2.18156 0 0 -1 0.106359 
3430 1 4.69637 1.39612 2.27034 1 1 1 0.0150734 
3272 1 4.06093 1.00821 3.04955 1 1 0 0.0252968 
416 1 4.84328 0.373382 2.66112 0 1 1 0.015839 
1875 1 5.35246 0.692089 1.76223 0 1 1 0.0204348 
3905 2 5.47175 1.06403 2.53133 1 1 0 0.00331829 
2405 1 6.20955 1.39768 2.23271 0 1 0 0.0302508 
27 1 5.96841 0.340646 2.51201 0 1 0 0.031542 
2689 1 6.2731 1.10305 3.20543 1 0 0 0.00394195 
3459 2 6.99131 1.29632 2.64574 0 0 0 0.00630734 
1032 1 6.96565 0.557187 2.20813 0 0 0 0.0530821 
820 1 7.8545 1.12434 2.66168 0 1 0 0.0804037 
626 1 1.5248 6.9384 0.182407 0 0 0 0.0257846 
1863 1 8.78931 1.0387 1.90253 0 1 0 0.00758513 
1231 1 8.89727 0.349275 2.67004 0 0 1 0.0262367 
3639 2 8.67466 1.19822 2.8728 0 0 1 0.0185497 
768 1 1.76986 3.85459 4.65161 0 1 0 0.0406294 
89 1 1.2829 2.33847 1.56909 0 0 -1 0.0128334 
1089 1 6.99747 0.0194305 4.39419 0 0 0 0.0137655 
1234 1 0.322763 2.81082 1.9859 0 0 0 0.0501953 
2910 1 0.925051 2.28771 2.68917 1 0 1 0.0981333 
4068 2 0.815594 3.04367 2.9696 1 0 -1 0.107996 
1647 1 1.41733 3.21437 2.16972 0 0 0 0.00502924 
2717 1 0.296199 5.38899 0.151164 1 0 0 0.0138975 
288 1 2.6732 3.19862 1.82242 0 1 0 0.0417347 
3586 2 2.09627 2.61905 1.61836 0 0 1 0.0368 
636 1 1.95571 2.36925 2.47849 0 0 0 0.01096 
3377 1 2.97802 2.69877 2.73878 1 1 1 0.016131 
3319 1 2.83979 2.16201 1.85698 1 1 0 0.0155404 
3952 2 4.37619 1.80048 3.0297 1 1 0 0.00891304 
1123 1 3.65441 1.83048 2.53394 0 0 0 0.030072 
538 1 3.70618 2.76124 1.94697 0 0 0 0.00291471 
610 1 4.5875 2.41462 2.45943 0 0 0 0.0125134 
4097 2 4.91794 3.16432 2.77732 0 0 1 0.097649 
527 1 5.41236 2.02039 1.81153 0 0 0 0.00301784 
427 1 6.39499 2.26783 1.67644 0 1 0 0.0113593 
699 1 5.55766 1.96647 2.86701 0 0 1 0.0229854 
1026 1 5.78816 2.97565 2.29672 0 0 0 0.00750144 
354 1 7.34679 1.81697 2.0818 0 1 0 0.0339323 
4141 2 7.88522 2.4555 2.09041 0 2 0 0.0314685 
2060 1 6.62588 2.1346 2.92942 0 0 0 0.017761 
753 1 6.99283 2.9312 2.34034 0 0 1 0.00800253 
2422 1 7.66565 2.38478 2.9684 0 1 1 0.012234 
1250 1 9.25623 2.03233 1.7143 0 1 0 0.00785625 
706 1 8.52637 1.97105 2.50442 0 0 0 0.036588 
3206 1 9.65678 5.67635 0.957793 0 0 0 0.0500141 
3921 2 8.67794 2.85172 2.37318 0 1 -1 0.0315682 
568 1 8.39329 7.91585 4.738 0 0 -1 0.0368877 
946 1 7.41809 2.38442 0.206982 0 1 1 0.0814217 
1294 1 0.532959 3.8401 2.16839 0 1 0 0.0397419 
589 1 0.697732 4.62388 2.91318 0 0 0 0.0373141 
748 1 9.58097 7.974 4.41177 0 0 0 0.0105822 
402 1 1.28745 3.70329 3.10987 0 0 0 0.0286682 
3556 2 2.09488 3.83748 1.63934 0 1 1 0.0184115 
613 1 2.19202 3.45265 2.79449 0 0 -1 0.0805289 
2897 1 1.64267 4.26817 2.25437 1 1 1 0.0363985 
2002 1 2.49068 4.68247 2.92315 1 0 -1 0.0212514 
256 1 2.73178 4.44258 1.78687 0 0 0 0.0447118 
1433 1 4.09244 3.26957 2.73884 0 1 0 0.0209838 
3153 1 3.18118 3.83346 2.65532 1 0 1 0.0243764 
1288 1 4.41531 4.25093 2.31521 0 1 0 0.0361733 
1181 1 4.7538 3.33009 1.87917 0 0 0 0.0427729 
3295 1 5.35885 3.92384 2.9293 1 1 0 0.0528725 
2213 1 5.3586 4.8649 2.46116 0 0 1 0.0507849 
2427 1 6.39647 3.76235 2.63252 0 1 0 0.038112 
4235 2 7.72794 3.19451 3.17228 1 0 -1 0.00617843 
649 1 6.74089 4.3803 1.70869 0 0 1 0.0292129 
3508 2 7.20265 3.7333 2.07634 0 1 1 0.00383736 
1639 1 7.72109 4.45217 2.08367 0 0 0 0.0272388 
1277 1 7.3734 3.95624 2.93151 0 0 -1 0.0112693 
1536 1 7.96096 3.38046 2.36503 0 0 0 0.00872113 
3869 2 8.24854 4.12034 2.74253 0 0 -1 0.00846928 
533 1 8.59129 3.98633 1.67505 0 0 0 0.0182603 
1158 1 8.99075 3.59071 2.63224 0 0 0 0.0227838 
1035 1 8.75354 4.72284 2.36392 0 0 1 0.0246813 
1347 1 0.963019 6.13201 1.60359 0 1 -1 0.0293055 
3554 2 3.53598 4.44217 4.77272 0 1 2 0.00289017 
3095 1 1.08516 5.1613 1.91931 1 0 0 0.040373 
829 1 0.63533 5.90774 2.57195 0 0 0 0.0416703 
3608 2 1.53347 5.89503 2.37946 0 0 0 0.000467965 
119 1 1.52322 5.12787 3.0512 0 0 1 0.00838676 
118 1 2.103 5.2752 2.15636 0 0 0 0.0121994 
99 1 2.21581 5.89524 2.95386 0 0 0 0.00775668 
633 1 2.3313 6.34956 1.99949 0 0 0 0.0127922 
3532 2 2.85753 5.35429 2.6107 0 1 0 0.00791586 
86 1 3.06544 5.45783 1.7313 0 0 0 0.0332249 
1004 1 3.52861 4.86492 2.43246 0 0 1 0.0244536 
1994 1 4.08004 5.73492 2.00578 0 0 0 0.00515239 
64 1 4.41954 5.1417 2.78449 0 0 -1 0.0194749 
875 1 3.25093 6.1283 2.53101 0 1 1 0.0417778 
157 1 4.5874 6.20647 2.95369 0 0 1 0.0140018 
3520 2 3.78345 5.6716 3.01073 0 0 0 0.0101545 
1139 1 4.74259 5.02723 1.68432 0 0 0 0.0212269 
3037 1 5.12421 5.91006 1.98378 1 0 0 0.051382 
525 1 5.8384 5.05358 1.57179 0 0 0 0.0314456 
4053 2 6.19023 4.69883 2.28008 0 0 -1 0.0822792 
827 1 6.14889 5.60108 2.43532 0 0 0 0.0623993 
3575 2 6.44134 6.29131 3.06881 0 1 0 0.016324 
1083 1 7.95362 4.83394 3.06398 0 0 0 0.0261723 
662 1 6.97098 5.50478 1.80773 0 0 1 0.0462788 
635 1 7.00633 4.93023 2.64824 0 0 0 0.036961 
579 1 7.25135 5.93937 2.87978 0 0 0 0.0924179 
1628 1 7.9798 5.52737 2.19896 0 0 0 0.0580273 
3475 2 8.04026 5.73041 3.16499 0 0 -1 0.0882461 
724 1 4.13282 9.25995 3.91059 0 0 0 0.033453 
1040 1 9.01496 6.0078 1.80989 0 0 1 0.00956589 
1218 1 0.255076 4.57499 1.5719 0 0 2 0.00430561 
1156 1 8.86864 5.6585 2.96243 0 0 0 0.0319393 
2468 1 0.55143 7.07748 2.89953 1 0 0 0.169415 
3347 1 0.992947 7.20268 1.86997 1 0 0 0.0200906 
2790 1 1.50127 6.65399 2.69424 1 0 -1 0.0019225 
273 1 1.5232 7.67349 2.79169 0 0 -1 0.0812002 
3072 1 0.533286 8.02874 3.39634 1 0 0 0.259343 
3920 2 0.711092 7.82512 2.50084 1 0 0 0.362629 
564 1 2.62511 6.99857 2.7983 0 0 0 0.0209133 
770 1 2.05477 7.37039 2.01274 0 0 1 0.0105023 
4203 2 2.37938 7.98509 2.72019 0 0 0 0.017236 
559 1 2.94538 7.91143 2.11407 0 0 0 0.00662476 
3827 2 3.05734 6.96708 2.08976 0 1 1 0.021079 
3256 1 4.49632 6.66526 1.46579 1 0 0 0.0305069 
3257 1 3.44674 6.41653 1.53816 1 0 0 0.0260405 
3741 2 4.77838 7.44862 1.67472 0 -1 2 0.141702 
2990 1 3.82891 7.38875 1.88875 1 0 0 0.0114008 
3855 2 4.06096 6.53743 2.32451 0 0 -1 0.00175415 
895 1 4.7019 7.13514 2.4776 0 0 1 0.0217296 
1530 1 3.67672 7.03523 2.87032 0 0 1 0.0139731 
3638 2 3.74565 8.01754 2.5551 0 0 0 0.000745683 
126 1 5.56068 7.83038 2.39492 0 0 0 0.0267741 
832 1 5.56089 7.06377 1.64874 0 0 0 0.074335 
556 1 5.62832 6.54709 2.79135 0 0 0 0.0377201 
224 1 6.55404 6.53469 2.2346 0 0 0 0.0366515 
1602 1 6.47085 7.61167 1.97472 0 0 0 0.0238817 
1410 1 6.30997 7.31532 2.97132 0 0 0 0.0291787 
1068 1 7.5542 6.39677 1.81203 0 0 0 0.11566 
1160 1 7.30818 7.22213 2.67102 0 0 1 0.0123276 
3953 2 7.9949 7.52936 2.39462 0 0 -2 0.0207744 
1438 1 8.16938 6.49661 2.64576 0 0 0 0.0416363 
2840 1 9.27658 7.4868 1.65708 0 0 0 0.0311189 
1539 1 8.43404 6.9735 1.74596 0 0 0 0.00946796 
1652 1 8.81197 7.79548 2.71416 0 0 1 0.00425326 
1388 1 9.26854 6.8305 2.4948 0 0 1 0.00248478 
1504 1 3.13824 1.53032 4.54551 0 1 0 0.053432 
3547 2 8.64422 7.10295 3.11629 -1 1 0 0.0141394 
2566 1 1.35998 9.21393 1.729 1 0 0 0.00921727 
18 1 0.884352 8.20374 1.71507 0 0 0 0.0241112 
4174 2 0.491993 9.3233 3.08282 1 0 0 0.0107012 
742 1 1.02336 8.68467 2.60773 0 0 1 0.00312221 
3168 1 1.51002 7.53816 4.59688 1 0 0 0.00864786 
3991 2 9.50087 6.12335 4.20508 0 1 1 0.0360407 
136 1 2.02423 8.40329 2.06221 0 0 0 0.00848979 
3964 2 1.98742 9.23454 2.63229 0 0 0 0.0366323 
4284 2 2.81138 8.70397 1.7547 0 0 2 0.00845001 
2635 1 2.84133 8.89994 2.59981 1 0 0 0.0363735 
665 1 5.93107 8.31856 3.3148 0 0 1 0.0372412 
3973 2 4.70782 8.81974 1.59177 0 0 -1 0.106889 
144 1 3.66934 8.67446 1.96835 0 0 0 0.0140306 
644 1 4.60289 8.13885 2.26289 0 0 1 0.0592022 
3269 1 3.99375 8.77504 2.90094 1 0 0 0.031652 
774 1 4.42882 9.42581 2.25143 0 0 0 0.0662375 
3815 2 5.07073 8.23635 3.03954 0 1 0 0.0188 
307 1 5.48873 8.8806 2.33476 0 0 0 0.0229901 
3583 2 6.40603 8.31242 2.58118 -1 0 1 0.239121 
1016 1 6.38771 9.16287 2.69856 0 0 0 0.0533975 
1140 1 3.16718 7.74836 0.0752521 0 0 0 0.0476403 
977 1 0.30557 5.93215 4.08344 0 1 1 0.0118769 
1752 1 7.8971 8.40436 2.82164 0 0 0 0.0651113 
1832 1 7.14149 8.3781 2.17937 0 0 0 0.0995037 
1442 1 7.92926 8.97021 1.84957 0 0 0 0.0626018 
4279 2 7.32548 9.15284 2.52719 1 0 0 0.0281199 
1529 1 6.99146 8.14734 3.19745 0 0 0 0.147126 
2447 1 8.89753 8.35539 3.6206 0 0 0 0.0107507 
1134 1 8.37172 8.0625 1.76797 0 0 1 0.0150122 
4223 2 8.77427 8.81803 1.64055 1 0 1 0.0448896 
1142 1 8.74105 8.883 2.62113 0 0 1 0.0186899 
78 1 0.244481 1.76248 1.738 0 0 0 0.053144 
751 1 9.44358 8.42829 2.04223 0 0 1 0.00858007 
1141 1 5.05381 4.62077 4.60861 0 0 0 0.0150245 
107 1 1.35913 0.865321 3.79394 0 0 0 0.0013797 
412 1 0.256503 1.53369 4.14976 0 1 1 0.0510413 
648 1 7.9542 3.75811 4.57539 0 0 0 0.0245438 
3410 1 2.52982 0.925282 3.93621 1 1 0 0.0177363 
3320 1 5.15616 9.44274 4.24889 1 0 0 0.0148205 
4194 2 4.56106 0.341843 3.48644 1 1 1 0.00404964 
401 1 3.63027 0.771151 4.07346 0 1 0 0.00333125 
627 1 4.61167 0.686097 4.44039 0 0 0 0.00281413 
355 1 4.12067 1.66445 3.98534 0 1 0 0.0741403 
1362 1 8.67309 9.0758 0.107652 0 0 0 0.0300842 
3889 2 7.46125 9.44571 1.18613 0 -1 1 0.0669346 
904 1 5.0033 1.29646 3.37604 0 1 2 0.0433749 
3947 2 2.87385 7.9601 4.00845 1 0 1 0.723876 
4038 2 5.49708 0.487407 3.26284 0 1 0 0.0154367 
201 1 2.50976 4.16523 0.00531481 0 0 2 0.056391 
3143 1 5.60462 0.802246 4.06913 1 0 0 0.0223961 
383 1 7.12069 0.437869 3.32506 0 1 1 0.0163638 
1805 1 7.66594 0.939053 4.37598 0 1 -1 0.0595877 
1326 1 6.5856 0.999489 4.30477 0 1 -1 0.0608092 
1304 1 7.32259 1.46146 3.47739 0 1 0 0.0383125 
3226 1 8.30358 9.46251 4.0166 1 0 0 0.0400077 
730 1 5.98583 9.39653 3.58637 0 0 1 0.00663031 
2177 1 8.31159 0.680802 3.5276 0 0 0 0.045128 
2165 1 9.41918 9.36298 1.51115 0 0 1 0.0227101 
1557 1 9.23145 1.1168 3.56277 0 0 0 0.0183766 
1227 1 8.84494 0.768358 4.42117 0 0 1 0.00612482 
1645 1 3.4815 3.3983 4.55102 0 0 0 0.031421 
518 1 1.49644 2.80527 4.56209 0 0 0 0.00906946 
3659 2 0.367492 2.15979 3.55388 1 1 -1 0.0310118 
814 1 1.15873 2.00583 3.8923 0 1 0 0.0194214 
2675 1 0.548889 2.91637 3.81825 1 0 1 0.0162462 
4184 2 2.61 3.86891 3.44866 1 1 -1 0.884068 
2537 1 1.55429 2.83072 3.44771 1 0 -1 0.0828419 
1396 1 1.98225 1.72245 4.48955 0 1 0 0.0732428 
932 1 2.37941 2.16829 3.51899 0 1 1 0.019775 
3340 1 3.11203 2.48233 4.19403 1 1 0 0.00514711 
151 1 3.22027 1.54547 3.48702 0 0 0 0.0460065 
607 1 3.8587 2.42221 3.35573 0 0 0 0.0195623 
778 1 4.14142 2.68125 4.37563 0 1 0 0.032088 
185 1 5.10016 1.67614 4.59771 0 0 1 0.0228836 
2024 1 5.33344 2.60895 4.39801 0 0 -1 0.0284554 
1736 1 4.85394 2.3855 3.52552 0 0 1 0.0154879 
1721 1 5.75638 2.90073 3.38442 0 0 0 0.0103437 
909 1 5.81709 1.84085 3.86684 0 1 0 0.0403866 
709 1 6.21141 3.04409 4.42272 0 0 0 0.0182084 
1878 1 7.18187 9.21648 3.41069 0 0 1 0.0002574 
1566 1 6.81791 3.04011 3.39202 0 0 0 0.0226277 
3854 2 7.69271 2.04337 4.16114 1 0 -2 0.0105173 
215 1 6.79782 2.26234 4.03079 0 0 0 0.0398524 
2149 1 7.73783 2.85468 3.92531 0 0 0 0.0369234 
571 1 1.23239 9.39271 0.68077 0 0 1 0.0107901 
517 1 5.67435 8.52998 4.485 0 0 0 0.00706007 
1916 1 8.37217 1.83368 3.52362 0 1 1 0.0350413 
1260 1 8.42808 9.56238 1.06649 0 0 0 0.0872866 
1503 1 7.23465 8.51 0.122977 0 0 0 0.0478592 
1624 1 8.60425 2.88437 3.32766 0 0 -1 0.0062278 
3044 1 8.58345 1.75589 4.52987 1 0 0 0.0231267 
1678 1 9.31891 2.2296 3.69646 0 0 0 0.0179866 
3717 2 8.5773 2.49388 4.05755 0 1 1 0.0186311 
187 1 2.15886 3.17365 0.063571 0 0 0 0.0136566 
3993 2 1.29937 3.47527 3.9935 0 0 1 0.0795461 
2733 1 0.776465 4.16261 3.91396 1 0 1 0.0441345 
198 1 2.34175 3.23838 3.92535 0 0 1 0.157849 
1728 1 1.86017 4.27904 3.65936 1 0 1 0.0144798 
194 1 1.99237 4.8368 4.55228 0 0 1 0.0392444 
487 1 4.93726 9.13087 3.19678 0 0 0 0.0178769 
301 1 3.10829 4.43041 3.85714 0 1 0 0.00678785 
710 1 4.81517 8.33952 3.91306 0 0 0 0.0573928 
584 1 9.52495 1.41697 2.50116 0 0 0 0.055073 
3155 1 3.98057 4.24326 3.28009 1 0 1 0.0435635 
1404 1 4.59801 3.37789 3.67068 0 1 1 0.01886 
2569 1 3.41008 3.36823 3.58324 1 0 0 0.0117747 
2989 1 4.18773 4.12439 4.2671 1 0 0 0.0114049 
3107 1 2.94518 5.67423 0.029245 1 0 1 0.034644 
335 1 4.94723 4.768 3.61311 0 1 -1 0.0172345 
2553 1 5.42867 3.8536 4.03933 0 0 -1 0.00194805 
1874 1 6.36144 3.85242 3.67629 0 1 0 0.0137264 
33 1 6.10215 4.63639 4.26352 0 0 -1 0.0317349 
2302 1 9.41466 5.35065 4.62976 0 0 0 0.0371104 
12 1 0.134191 7.76835 1.04848 0 0 0 0.00111521 
1722 1 7.85225 0.0578188 2.64094 0 0 1 0.0727925 
3864 2 7.36138 3.66431 3.83957 0 1 -1 0.119476 
1532 1 7.10142 4.66246 3.74475 0 0 0 0.0336672 
1143 1 8.18435 3.82959 3.58694 0 0 1 0.04086 
4186 2 9.49239 1.24796 1.43717 0 1 1 0.0278562 
1193 1 8.85203 3.40881 4.17357 0 0 1 0.0268853 
3006 1 8.69524 4.60459 4.55148 1 0 0 0.00654842 
3780 2 9.10315 3.76212 3.45049 0 0 2 0.0540548 
821 1 3.15103 7.91763 3.17788 0 0 0 0.036227 
2528 1 8.8969 4.6533 3.39277 0 0 0 0.0177232 
3304 1 2.5298 7.31301 4.56769 1 0 0 0.0628757 
4253 2 0.716515 5.48055 3.40513 1 0 0 0.0317194 
3839 2 1.14758 5.96286 4.46402 0 1 1 0.0345951 
2727 1 1.13798 5.12013 4.10023 1 0 0 0.0244583 
40 1 1.30428 6.03861 3.52214 0 0 0 0.0255946 
1192 1 6.2692 5.70082 4.72412 0 0 1 0.0211047 
4122 2 0.638113 6.53977 3.56677 1 -1 0 0.145555 
3902 2 2.43065 4.93133 3.81516 1 0 1 0.0344005 
521 1 2.13764 5.66557 4.01947 0 0 0 0.0212946 
3640 2 3.00062 6.5059 3.37101 0 -1 1 0.0730967 
221 1 2.96228 6.2875 4.30764 0 0 0 0.02422 
1848 1 3.03857 5.16173 4.59702 0 1 -1 0.00293519 
1653 1 3.10462 5.55299 3.51629 0 0 0 0.00358523 
718 1 4.4438 6.10019 4.60199 0 0 0 0.0219662 
3477 2 3.64484 5.78331 4.39099 0 -1 -2 0.00466944 
1392 1 3.9369 5.10583 3.90868 0 1 1 0.0208531 
3523 2 4.59754 5.55669 3.54598 0 0 1 0.127265 
1048 1 3.86112 6.25185 3.63908 0 0 0 0.0259436 
3141 1 5.48912 5.58233 3.2671 1 0 0 0.027273 
1654 1 5.33033 5.54408 4.28247 0 0 0 0.0173443 
172 1 6.12335 4.66471 3.15539 0 0 0 0.0754221 
600 1 2.82975 8.8083 3.75537 0 0 0 0.041146 
3600 2 8.04564 6.01177 4.46115 0 0 0 0.0300804 
4159 2 6.86726 6.1858 4.18323 0 0 0 0.084019 
1445 1 6.51958 5.52678 3.65697 0 0 1 0.0561969 
4100 2 6.82519 5.14108 4.41232 1 0 1 0.0182842 
2108 1 7.51501 5.63601 3.8594 0 0 0 0.0344571 
3798 2 8.01946 4.6694 3.96993 0 1 -1 0.0691889 
3268 1 2.15769 9.58012 3.61143 1 0 0 0.040833 
2004 1 0.136068 0.264842 0.0808067 1 0 1 0.0333959 
3526 2 9.43639 8.48053 2.94741 -1 0 0 0.0184032 
2037 1 8.52159 5.44587 4.00861 0 0 -1 0.0425492 
1876 1 8.17848 6.41337 3.66025 0 0 0 0.0231695 
3426 1 0.584746 7.95397 4.50393 1 0 0 0.0776981 
2099 1 0.0472365 7.1039 4.03808 1 0 0 0.057393 
3871 2 6.52116 7.98387 0.11555 0 0 0 0.0228681 
2119 1 0.82036 6.69738 4.64173 1 -1 1 0.00724809 
466 1 1.21242 7.14748 3.68138 0 0 1 0.13966 
4240 2 1.44895 8.02179 3.76963 1 -1 0 0.0124324 
2929 1 7.93853 8.46819 3.86677 0 0 1 0.0441504 
2556 1 2.1829 7.69995 3.62902 1 0 1 0.0955132 
434 1 2.18664 6.64597 3.70159 0 0 0 0.126106 
666 1 3.31614 7.14863 3.86157 0 0 0 0.0162724 
1244 1 4.22794 7.79167 3.2305 0 0 0 0.0066025 
3092 1 3.46165 9.24351 4.63625 1 0 0 0.0103982 
534 1 4.29599 7.19463 4.1465 0 0 0 0.0246922 
3763 2 4.46785 6.94692 3.28232 1 0 1 0.0493256 
1349 1 7.35768 9.39801 4.43752 0 0 -1 0.0850917 
430 1 5.25626 7.47654 3.40487 0 0 0 0.0268394 
1275 1 5.24132 7.46697 4.49276 0 0 0 0.0276944 
766 1 5.01817 6.48027 3.81512 0 0 0 0.0351441 
57 1 6.0159 6.32296 3.91254 0 0 0 0.0582373 
1988 1 6.17728 7.50734 3.93824 0 0 0 0.0794939 
1039 1 3.74232 8.24989 4.02071 0 0 1 0.023532 
4118 2 5.85217 9.60029 1.95724 1 1 1 0.000881686 
3041 1 7.04586 6.70637 3.58578 1 0 -1 0.0141673 
1705 1 7.20014 7.68608 4.14484 0 0 1 0.0320853 
177 1 7.98403 7.5005 3.37973 0 0 0 0.00396096 
2685 1 9.25509 6.41192 3.44584 0 0 0 0.0153647 
1453 1 8.79969 7.19024 3.98719 0 0 0 0.0383616 
2861 1 9.59971 7.48082 3.3072 0 0 0 0.0384681 
3071 1 6.63027 8.56824 4.06565 1 0 0 0.00533278 
4137 2 1.63088 9.22675 4.22974 1 1 1 0.205629 
2169 1 1.03921 8.94153 3.70975 1 0 0 0.100104 
3028 1 0.117726 6.59623 1.88527 1 0 0 0.0834872 
1216 1 9.11089 9.38678 3.44398 0 0 0 0.0258422 
2995 1 1.92989 8.48313 4.3484 1 0 0 0.0504426 
465 1 1.91573 8.61951 3.20808 0 0 0 0.0281943 
1667 1 9.30409 2.56496 4.7391 0 0 0 0.0250001 
1554 1 3.19679 3.13748 0.290325 1 0 0 0.00553637 
3522 2 0.153946 1.6634 0.775603 0 0 0 0.0226428 
758 1 0.136213 4.86473 4.19622 0 0 0 0.0114218 
938 1 0.675946 3.506 4.76113 0 1 0 0.0252392 
140 1 9.67314 4.16273 4.03617 0 0 1 0.0262362 
460 1 1.90445 0.0508456 4.37135 0 1 0 0.0508947 
1422 1 6.39368 9.39029 4.63022 0 0 1 0.0423174 
516 1 0.498424 7.3716 0.0518238 0 0 0 0.00758831 
165 1 0.79945 2.19159 0.0100665 0 0 1 0.0407993 
1235 1 0.254841 0.032011 2.74287 1 0 1 0.00272741 
2711 1 2.37174 1.94842 0.07923 1 1 1 0.0323763 
1104 1 8.38364 2.11894 0.0126035 0 0 0 0.0261702 
205 1 3.35223 9.5725 3.28406 0 0 0 0.0246436 
3994 2 0.0792778 4.25546 4.752 1 0 0 0.0624489 
222 1 2.89596 8.36898 4.82615 0 0 0 0.0203551 
3814 2 8.875 2.9271 0.00974486 -1 0 2 0.00151926 
431 1 0.391994 2.51533 4.82166 0 1 0 0.0382385 
4006 2 8.03782 8.99562 4.79607 0 0 0 0.0855413 
3024 1 0.852198 0.90738 5.68492 1 1 0 0.0661278 
3558 2 0.194427 1.24757 6.09299 1 0 1 0.0181397 
2100 1 8.2194 6.89104 9.45824 0 0 -1 0.125243 
1869 1 5.66795 0.124239 5.516 0 1 0 0.0225998 
1111 1 6.19479 2.08309 4.82874 0 0 0 0.0480305 
1276 1 1.82387 0.766809 6.12556 0 0 -1 0.0555688 
4300 2 1.658 1.46135 5.63719 0 1 0 0.0382226 
2933 1 2.51241 1.40045 5.3398 0 1 0 0.060609 
3188 1 1.68396 0.879068 5.0149 1 0 0 0.019646 
1764 1 2.85795 0.501033 5.97153 0 1 -1 0.0788423 
4273 2 4.22372 0.918364 5.90654 1 1 0 0.0238994 
1720 1 3.72051 0.61755 5.11889 0 0 0 0.0538858 
578 1 3.46073 1.36967 5.86364 0 0 0 0.0484807 
3999 2 4.39419 8.77223 9.39342 0 0 0 0.0292403 
582 1 4.99356 0.890187 5.36715 0 0 0 0.0207322 
471 1 4.80584 0.279705 6.2449 0 1 1 0.0551862 
417 1 5.58579 0.96091 6.17451 0 1 0 0.0381255 
2048 1 5.91518 1.11427 5.03959 0 0 -1 0.0352079 
3003 1 1.10439 9.56222 8.22024 1 0 -1 0.00686517 
2201 1 7.02675 0.738473 5.31725 0 0 0 0.00698554 
880 1 6.45503 0.368106 6.10713 0 1 0 0.0205678 
1710 1 8.06575 1.23143 5.34684 0 0 1 0.0100507 
3610 2 8.23579 0.0555711 6.59615 0 0 0 0.00947993 
286 1 7.43841 1.15213 6.39426 0 1 0 0.00647326 
1310 1 6.55181 1.52715 5.85636 0 1 0 0.0637242 
1036 1 9.12458 1.03214 5.32313 0 0 1 0.007252 
1291 1 8.67362 0.707747 6.12381 0 1 0 0.0045741 
1526 1 9.49078 8.35595 9.57727 0 0 0 0.0279615 
2493 1 9.35118 1.49278 6.38074 0 0 0 0.00224268 
3032 1 0.136597 4.65271 9.00795 1 0 -1 0.0218593 
4048 2 1.00957 2.55555 5.46081 1 1 0 0.0236332 
141 1 0.937826 1.8475 6.0416 0 0 0 0.00704119 
1527 1 0.317694 2.96121 5.79579 1 0 -1 0.0321257 
154 1 1.48033 3.28689 5.4435 0 0 0 0.0442452 
3324 1 1.88371 2.25781 5.38811 1 1 0 0.0243264 
2068 1 8.43235 0.210119 5.20432 0 0 0 0.00391557 
1521 1 2.34545 3.16808 5.97966 0 0 0 0.0625184 
3488 2 9.60871 7.78746 8.96215 -1 0 -1 0.0263862 
1131 1 2.85878 2.27425 5.94086 0 0 0 0.0044388 
4054 2 6.62255 8.69977 5.12794 1 0 0 0.0346244 
1069 1 4.52545 1.72378 6.14343 0 0 0 0.0300878 
248 1 4.55835 2.54533 5.30067 0 0 0 0.0511705 
83 1 3.97715 2.6529 6.12489 0 0 -1 0.0152469 
1425 1 3.43955 2.52734 5.15613 0 1 0 0.0401397 
3503 2 4.06239 3.23728 5.1655 0 0 1 0.049402 
1801 1 5.26784 2.58267 6.38047 0 1 0 0.0551492 
3727 2 6.06326 1.9956 6.38343 0 1 -1 0.0226054 
881 1 5.62451 2.96551 5.32133 0 1 1 0.0125359 
2093 1 5.53744 1.87425 5.64773 0 0 0 0.0253259 
1082 1 6.55961 2.55115 5.73235 0 0 -1 0.0212428 
1117 1 7.64573 2.15694 5.76857 0 0 0 0.00584464 
1446 1 8.13601 2.6496 4.87739 0 1 0 0.0144821 
2097 1 8.79963 2.03961 5.53746 0 0 0 0.00267891 
3688 2 9.38188 2.65005 5.72745 0 0 2 0.00314109 
4301 2 8.29453 2.73413 5.77992 0 0 0 0.0356901 
941 1 0.621882 3.9544 5.76984 0 1 0 0.0613429 
621 1 6.54538 3.80982 9.40988 0 0 0 0.0037056 
1826 1 8.8736 8.53382 8.7986 0 0 -1 0.0137764 
2184 1 1.12085 0.161583 6.82214 1 0 0 0.2435 
223 1 8.80767 9.63937 8.49389 0 0 0 0.0676017 
3747 2 2.24344 3.76371 5.38696 0 0 0 0.0497209 
389 1 1.64066 4.54848 5.64125 0 1 0 0.0358559 
719 1 2.54805 4.25186 5.99297 0 0 1 0.0332502 
1321 1 1.55383 3.85099 6.34883 0 0 0 0.023558 
1477 1 3.2675 3.49393 5.62523 0 1 0 0.0294221 
323 1 0.039174 1.20878 5.23189 0 1 0 0.0279954 
1924 1 4.76314 3.38735 5.87304 0 0 0 0.0266311 
341 1 4.11581 4.10778 5.33428 0 1 0 0.0227827 
4042 2 4.02148 3.79593 6.23609 0 1 1 0.0791974 
1637 1 3.36871 2.07659 9.60984 0 0 0 0.00774042 
1074 1 5.15905 4.48098 5.59447 0 0 0 0.022994 
4088 2 6.06127 4.45565 5.84342 1 0 -1 0.0264073 
1136 1 5.86902 3.9491 5.00047 0 0 0 0.00604506 
1565 1 5.71806 3.63167 6.12071 0 0 -2 0.0120024 
127 1 7.67226 3.31893 5.63442 0 0 0 0.00399764 
4117 2 6.40879 3.24228 5.25958 0 0 0 0.0397366 
1819 1 6.71719 3.91159 5.7077 0 0 0 0.0213346 
3970 2 7.42365 4.27984 5.48512 0 1 -1 0.0244738 