ITEM: TIMESTEP
43200
ITEM: NUMBER OF ATOMS
4320
ITEM: BOX BOUNDS xy xz yz pp pp pp 
0 19.4838 0.17379
0 19.31 0
0 9.655 0
ITEM: ATOMS id type x y z ix iy iz msd_nonAffine 
3378 1 1.03692 0.650982 0.32398 1 1 1 0.0247806 
486 1 1.49282 0.83889 1.28538 0 1 1 0.0307299 
2494 1 9.64409 4.16945 2.0247 0 0 0 0.0442597 
332 1 0.91942 1.58525 0.843937 0 1 0 0.026647 
964 1 2.07782 0.674552 0.32458 0 1 1 0.0539474 
1221 1 9.50492 5.22303 1.9708 0 0 1 0.0511997 
3697 2 1.79634 1.44456 0.782242 1 1 1 0.0191057 
135 1 2.76384 1.32071 1.00911 0 1 1 0.0205452 
1553 1 4.3689 0.830703 0.541636 0 0 0 0.0453482 
4065 2 3.64088 1.42041 0.527048 1 1 1 0.0173893 
1198 1 3.39057 0.500265 0.791165 0 0 1 0.0283153 
868 1 3.78255 1.3154 1.40326 0 1 0 0.00622521 
3422 1 4.36857 0.423698 1.59408 1 1 0 0.0783265 
1493 1 4.79828 1.35204 1.23974 0 1 1 0.0213288 
4074 2 5.06743 0.557585 0.999498 0 1 1 0.0330827 
3203 1 5.27294 1.20445 0.194676 1 0 0 0.0548516 
1264 1 5.90414 1.32287 1.06746 0 1 0 0.0545956 
376 1 5.91331 0.310241 0.814239 0 1 0 0.0129709 
3758 2 6.15076 0.663358 1.55064 0 0 1 0.060402 
663 1 6.83487 0.733007 1.08942 0 0 0 0.0500238 
963 1 6.53667 1.19791 0.202775 0 1 1 0.0468781 
4222 2 6.5769 0.300605 0.234174 1 0 -1 0.0171214 
568 1 8.44785 8.09389 4.81697 0 0 -1 0.0381347 
3107 1 2.91341 5.75565 0.058706 1 0 1 0.0240806 
2154 1 7.68168 0.860598 1.51133 0 0 1 0.0738234 
4078 2 8.07291 1.24272 0.324254 0 1 0 0.0661817 
1783 1 9.42369 0.429934 1.01795 0 1 0 0.0385783 
1177 1 8.90673 1.3797 0.758154 0 0 1 0.0513938 
2805 1 8.3354 0.495719 0.670774 1 1 1 0.0204181 
3124 1 9.45207 3.08537 1.76693 0 0 1 0.00543908 
3569 2 0.384 6.41296 0.302065 0 0 2 0.0925793 
201 1 2.56863 4.34048 0.1166 0 0 2 0.0754037 
1422 1 6.26306 9.40484 4.42413 0 0 1 0.0938458 
2926 1 1.48485 2.50679 0.613342 1 1 1 0.0301226 
2794 1 0.34652 2.45709 0.876404 1 0 0 0.0327745 
3597 2 0.914174 3.23793 1.45855 0 1 0 0.0962008 
1722 1 7.80023 0.0130819 2.56911 0 0 1 0.0785237 
885 1 2.59112 2.61281 0.808717 0 1 1 0.0436332 
516 1 0.482974 7.2926 0.109651 0 0 0 0.0191919 
512 1 1.6936 3.43984 1.292 0 0 0 0.0795403 
3535 2 3.18717 3.04418 1.27797 0 1 0 0.0198109 
1305 1 6.19503 0.0292606 3.5759 0 1 0 0.0140085 
3224 1 4.40945 1.97931 0.465939 1 1 0 0.0302144 
1822 1 3.65709 2.24864 1.03159 0 1 0 0.0155052 
1031 1 4.64377 2.68289 1.27718 0 0 0 0.0115656 
3604 2 3.91325 2.66765 0.223507 0 0 0 0.0317501 
4308 2 4.37452 1.97276 1.71408 0 0 1 0.023562 
640 1 4.6894 2.96642 0.261246 0 0 1 0.122832 
1704 1 5.82939 3.02072 0.231509 0 0 1 0.037646 
3626 2 5.91873 1.83536 0.164883 0 0 0 0.0233949 
100 1 5.51655 3.09388 1.22947 0 0 0 0.0280573 
951 1 5.35938 2.12601 0.711066 0 1 1 0.073215 
1055 1 7.29055 1.59113 0.7496 0 0 0 0.0819779 
3784 2 6.69918 1.56042 1.3518 0 0 -1 0.0515892 
629 1 6.42334 2.27655 0.712391 0 0 0 0.0654705 
1563 1 7.32144 2.6503 1.34537 0 0 0 0.0380998 
576 1 8.10822 3.11627 0.558029 0 0 0 0.0150987 
1632 1 8.19989 1.75825 1.46208 0 0 0 0.0410443 
3737 2 8.00068 2.32199 0.913716 1 1 0 0.103307 
3175 1 9.08247 2.42361 0.817644 1 0 1 0.0283343 
1395 1 8.42925 2.79161 1.58311 0 1 1 0.0251523 
1089 1 6.98678 0.0325014 4.28544 0 0 0 0.00390461 
790 1 2.40471 0.20814 1.19827 0 1 0 0.0446222 
3383 1 0.843968 3.34868 0.587924 1 0 1 0.0163645 
547 1 0.926223 4.16173 1.3253 0 0 1 0.0893772 
2997 1 0.264642 4.37113 0.428262 1 0 0 0.0343969 
72 1 1.35998 4.21018 0.363158 0 0 0 0.0796447 
3554 2 3.35281 4.42757 4.6535 0 1 2 0.0680977 
2644 1 0.902268 9.03504 4.75276 1 0 1 0.0217052 
2007 1 2.01909 4.49353 1.16327 1 0 0 0.0298038 
1216 1 9.00634 9.49529 3.41998 0 0 0 0.0130567 
3150 1 2.77093 3.74349 1.04024 1 0 0 0.0190136 
1485 1 3.88996 3.2906 0.815758 0 1 1 0.0189068 
380 1 4.57042 4.03477 0.22843 0 1 1 0.0116443 
34 1 3.55487 4.32532 0.541195 0 0 0 0.0182587 
1056 1 4.56514 4.02896 1.23395 0 0 0 0.0363055 
965 1 3.68239 3.61399 1.76935 0 0 1 0.0882633 
3915 2 5.26851 3.72485 0.599053 0 1 1 0.0495466 
555 1 5.32409 4.61427 0.799746 0 0 0 0.0220687 
1214 1 6.10681 3.91237 0.72499 0 0 1 0.0370616 
910 1 5.73263 4.01693 1.74973 0 1 0 0.0330058 
810 1 6.91411 3.21499 0.611259 0 1 1 0.0298101 
3268 1 2.15231 9.63879 3.71299 1 0 0 0.0108039 
981 1 7.29249 4.29228 0.296218 0 1 0 0.00336619 
3546 2 6.94411 3.99823 1.05861 0 0 1 0.025039 
2081 1 7.72073 3.62146 1.35627 0 0 0 0.00380452 
2050 1 6.59266 3.3949 1.59591 0 0 0 0.0167516 
303 1 9.45871 2.40979 2.81412 0 1 0 0.0735053 
639 1 9.01035 3.45832 0.870042 0 0 0 0.000582216 
1153 1 9.37731 4.5914 1.05607 0 0 0 0.00867948 
1946 1 8.32733 4.16954 0.671395 0 1 0 0.0344295 
3094 1 0.972683 5.13404 0.942959 1 0 0 0.0580441 
2010 1 1.18387 6.00387 0.418806 1 0 0 0.0277444 
2451 1 9.08344 8.96287 4.49186 0 0 1 0.00533392 
738 1 9.69997 9.23177 2.7141 0 0 0 0.0160468 
205 1 3.29554 9.49669 3.40504 0 0 0 0.00765648 
4081 2 1.99653 6.00997 0.444269 1 1 0 0.0675434 
1976 1 1.87283 5.46274 1.28161 0 0 1 0.0652285 
2670 1 1.99767 5.15307 0.31742 1 0 1 0.0330417 
1042 1 2.68074 6.05699 1.05053 0 0 1 0.0106352 
1233 1 2.88075 4.98847 0.905345 0 0 1 0.00114672 
705 1 9.62172 4.04889 0.155715 0 0 0 0.0165405 
3059 1 3.71514 4.69166 1.5847 1 0 0 0.0541057 
2654 1 4.35312 5.07482 0.461635 1 0 1 0.0376678 
138 1 3.65377 5.73082 1.07539 0 0 1 0.0513482 
3671 2 3.52738 5.15609 0.317987 0 0 1 0.00906887 
3034 1 5.25687 5.6762 0.842508 1 0 0 0.13266 
3971 2 5.74476 6.04633 0.312461 0 0 0 0.500648 
146 1 6.67903 6.17297 0.174669 0 0 0 0.218324 
655 1 6.23383 6.02702 1.11362 0 0 0 0.292617 
4230 2 8.70642 6.40257 0.0467458 1 0 0 0.0187889 
2653 1 7.60768 4.73277 1.2474 0 0 1 0.0474044 
537 1 6.59255 4.8444 0.826799 0 0 0 0.0223447 
80 1 7.42784 5.70447 0.873044 0 0 -1 0.047005 
4073 2 8.08199 5.8576 1.45165 0 0 0 0.196368 
3679 2 8.09383 5.12003 0.49112 0 1 2 0.00533837 
3526 2 9.38483 8.37837 3.01199 -1 0 0 0.00376049 
70 1 1.7532 8.79286 0.0197885 0 0 0 0.00304681 
1095 1 8.81154 6.42289 4.63602 0 0 0 0.0246304 
2497 1 8.67723 5.7719 0.739118 0 0 0 0.0390317 
1215 1 8.58051 5.03715 1.52831 0 0 1 0.012549 
23 1 7.76927 6.75765 4.59376 0 0 0 0.0339201 
748 1 9.7164 8.05381 4.51515 0 0 0 0.0585259 
1077 1 0.764956 6.79643 0.975601 0 0 0 0.00351981 
17 1 1.40623 7.66051 1.08771 0 0 1 0.0225402 
1554 1 3.02173 3.28203 0.129329 1 0 0 0.060929 
2250 1 1.80981 6.55484 1.13246 1 0 0 0.0487471 
2303 1 2.19794 7.8025 0.365715 1 1 0 0.0080185 
3731 2 2.23806 7.85009 1.22683 0 0 0 0.0449383 
759 1 2.57758 6.73434 0.221688 0 0 1 0.000258801 
1830 1 2.67892 7.0995 1.15029 0 0 0 0.0196822 
1252 1 7.43037 0.553175 0.185412 0 1 1 0.0239631 
961 1 4.36657 6.35595 0.550594 0 1 1 0.0555305 
3878 2 3.45774 6.34963 0.445048 0 0 2 0.161995 
543 1 3.75436 7.07855 0.930605 0 0 1 0.0838927 
206 1 5.93176 5.29908 0.0971807 0 0 1 0.00255913 
985 1 6.00617 6.8351 0.510122 0 0 1 0.276305 
270 1 4.86747 7.26719 0.832963 0 0 0 0.0967683 
1191 1 6.4793 7.75925 0.763535 0 0 0 0.154215 
4287 2 5.73358 7.52104 1.12494 0 0 0 0.0258915 
2399 1 4.22932 9.47732 1.22165 0 0 0 0.0281593 
1963 1 5.53608 7.8385 0.227055 0 0 1 0.0420496 
3539 2 7.41524 6.54468 0.256858 0 0 1 0.190088 
1101 1 8.09172 6.61075 0.837267 0 0 1 0.058326 
1364 1 7.4605 7.60815 0.572453 0 0 0 0.0903816 
1222 1 7.00378 6.7633 1.03332 0 0 0 0.192549 
1980 1 7.32921 7.88271 1.62891 0 0 0 0.0675596 
2532 1 0.802666 0.0868855 3.74711 1 0 0 0.049847 
2416 1 8.53942 7.61786 0.860585 0 0 1 0.0320863 
551 1 9.09715 6.69988 0.809725 0 0 0 0.0562743 
938 1 0.660575 3.48117 4.80672 0 1 0 0.0161443 
1667 1 9.1758 2.46599 4.7358 0 0 0 0.0181127 
646 1 0.848996 8.44154 0.598388 0 0 1 0.0257877 
3126 1 0.363403 9.12511 1.33363 1 0 1 0.0179123 
3889 2 7.60077 9.34824 1.02066 0 -1 1 0.105721 
121 1 2.10747 8.68895 1.02808 0 0 0 0.0568312 
2833 1 2.78789 8.67357 0.25455 1 0 1 0.0183304 
959 1 3.07046 8.09412 1.09945 0 0 0 0.0162736 
998 1 3.16141 9.22574 1.13662 0 0 1 0.00759916 
187 1 1.97746 3.32346 0.16738 0 0 0 0.0273052 
645 1 4.18069 8.06943 1.09359 0 0 1 0.148579 
203 1 3.79774 8.82746 0.430432 0 0 1 0.0236809 
3168 1 1.60038 7.44211 4.58035 1 0 0 0.00582043 
228 1 5.21958 9.29644 1.41307 0 0 0 0.0169474 
2263 1 4.84776 8.79756 0.545459 0 0 0 0.0137421 
1120 1 5.25876 8.17165 1.3968 0 0 0 0.0668632 
3064 1 6.05292 8.69747 0.396875 1 0 0 0.011994 
204 1 6.13631 8.88646 1.5342 0 0 0 0.046644 
3797 2 7.61716 0.140228 1.03355 0 1 -1 0.0360725 
3629 2 7.00412 8.64813 1.80034 0 0 0 2.19219 
1613 1 7.01916 8.72652 0.921003 0 0 1 0.0247147 
2757 1 7.65267 9.40431 0.157097 0 0 0 0.0815737 
140 1 9.58488 4.02379 4.22189 0 0 1 0.0568252 
2626 1 8.02587 8.57401 0.750226 0 0 0 0.196452 
1908 1 9.05632 8.59903 0.852303 0 0 0 0.126842 
3226 1 8.21417 9.20822 3.975 1 0 0 0.0758749 
3912 2 9.64019 3.2063 4.51445 0 1 0 0.0282542 
3247 1 3.77843 0.145484 2.46076 1 1 0 0.0490739 
4118 2 5.73218 9.61715 2.01834 1 1 1 0.0205046 
2551 1 0.709904 0.723523 1.94033 1 0 0 0.0916025 
3279 1 1.3563 0.623556 2.94204 1 1 0 0.067939 
597 1 1.19372 1.6081 2.1814 0 0 0 0.0528266 
993 1 0.615447 1.32784 3.11547 0 1 0 0.00638152 
979 1 0.150345 0.857622 1.03687 0 1 0 0.0321897 
4129 2 5.16875 0.290811 4.69137 0 0 0 0.0497263 
3011 1 1.96468 1.74294 1.56955 1 0 0 0.0737459 
2595 1 2.10398 0.820988 2.12027 0 0 0 0.0658958 
2565 1 1.80679 1.57517 3.16359 1 0 0 0.0306395 
1262 1 2.68325 1.57549 2.51777 0 1 0 0.0648895 
950 1 3.1206 0.748105 1.92447 0 1 0 0.0199707 
1238 1 2.88449 0.652916 3.10187 0 0 0 0.121704 
4130 2 3.95867 1.02255 2.1863 0 0 -1 0.0892452 
3430 1 4.69835 1.3578 2.32237 1 1 1 0.0163695 
3272 1 3.93792 0.981884 3.04446 1 1 0 0.0389821 
416 1 4.83078 0.352125 2.67278 0 1 1 0.0183284 
1875 1 5.39266 0.72167 1.87752 0 1 1 0.0491469 
3905 2 5.50411 1.00145 2.68144 1 1 0 0.0186658 
2405 1 6.21768 1.31434 2.13468 0 1 0 0.0119355 
27 1 6.02185 0.38627 2.59605 0 1 0 0.0210264 
2689 1 6.18137 1.09833 3.25495 1 0 0 0.0124045 
3459 2 6.9126 1.10758 2.62555 0 0 0 0.0229402 
1032 1 6.95451 0.476226 2.10862 0 0 0 0.0327484 
820 1 7.91824 1.06815 2.52271 0 1 0 0.0439377 
626 1 1.49531 6.98318 0.224385 0 0 0 0.0173178 
1863 1 8.81742 0.983069 1.79253 0 1 0 0.015899 
1231 1 8.84464 0.409312 2.63383 0 0 1 0.0421047 
3639 2 8.72512 1.26751 2.75835 0 0 1 0.0022696 
697 1 2.38236 9.47554 1.77927 0 0 0 0.0115137 
89 1 1.13282 2.41287 1.57956 0 0 -1 0.0645765 
1626 1 9.44079 5.99905 0.173389 0 0 0 0.0263237 
1234 1 0.27815 2.78347 2.04408 0 0 0 0.0456965 
2910 1 0.905131 2.35941 2.97492 1 0 1 0.0316171 
4068 2 0.66622 3.25217 2.82887 1 0 -1 0.0371648 
1647 1 1.27424 3.29488 2.25279 0 0 0 0.0313259 
3309 1 0.0672467 5.72344 1.34937 1 0 0 0.0251964 
288 1 2.65642 3.1389 1.98366 0 1 0 0.0106051 
3586 2 2.06901 2.64663 1.59471 0 0 1 0.0574467 
636 1 1.97195 2.39595 2.43887 0 0 0 0.019548 
3377 1 3.01341 2.66562 2.83015 1 1 1 0.0114694 
3319 1 2.87058 2.10925 1.71941 1 1 0 0.0391203 
3952 2 4.35617 1.71062 3.04256 1 1 0 0.00275744 
1123 1 3.67001 1.74997 2.45401 0 0 0 0.0081997 
538 1 3.74157 2.63427 1.91236 0 0 0 0.0175007 
610 1 4.63985 2.39631 2.45807 0 0 0 0.00964117 
4097 2 4.99993 2.9874 2.97278 0 0 1 0.0340339 
527 1 5.33606 2.07975 1.80023 0 0 0 0.00698525 
427 1 6.39449 2.3085 1.77713 0 1 0 0.0261308 
699 1 5.55462 1.91027 2.80472 0 0 1 0.0102068 
1026 1 5.78052 2.98227 2.26611 0 0 0 0.0107389 
354 1 7.24773 1.70051 2.02773 0 1 0 0.0600829 
4141 2 7.80714 2.45244 2.08063 0 2 0 0.0169866 
2060 1 6.59592 2.01396 2.91162 0 0 0 0.0562317 
753 1 7.05106 2.84672 2.38328 0 0 1 0.0300253 
2422 1 7.64879 2.26949 2.90433 0 1 1 0.0577298 
1250 1 9.19257 1.99555 1.7557 0 1 0 0.0111588 
706 1 8.55509 2.02685 2.47703 0 0 0 0.0218788 
4236 2 0.210882 2.00127 2.54509 1 0 0 0.0268902 
3921 2 8.81176 2.84595 2.34416 0 1 -1 0.0383339 
3304 1 2.57563 7.28472 4.66424 1 0 0 0.0324005 
1140 1 3.31559 7.62699 0.164398 0 0 0 0.0499218 
1294 1 0.49118 3.87932 2.19512 0 1 0 0.048113 
589 1 0.508644 4.73823 2.98438 0 0 0 0.0468221 
718 1 4.44808 6.02218 4.55001 0 0 0 0.0334545 
402 1 1.12284 3.86977 3.08227 0 0 0 0.119527 
3556 2 2.23911 3.83452 1.79168 0 1 1 0.0616811 
613 1 2.12505 3.58863 2.84082 0 0 -1 0.0733563 
2897 1 1.61432 4.30714 2.14613 1 1 1 0.0973906 
2002 1 2.46743 4.55803 2.99443 1 0 -1 0.0259618 
256 1 2.80747 4.54325 1.94088 0 0 0 0.0153076 
1433 1 4.13288 3.31365 2.71894 0 1 0 0.0120161 
3153 1 3.17943 3.82226 2.68238 1 0 1 0.0350787 
1288 1 4.36666 4.27463 2.26722 0 1 0 0.0186278 
1181 1 4.84922 3.36964 1.96484 0 0 0 0.00671955 
3295 1 5.24499 3.81178 2.89106 1 1 0 0.0219209 
2213 1 5.32118 4.7405 2.3743 0 0 1 0.0609436 
2427 1 6.3383 3.73702 2.67871 0 1 0 0.0397919 
4235 2 7.75277 3.11966 3.20647 1 0 -1 0.0258757 
649 1 6.82175 4.41984 1.90456 0 0 1 0.0228636 
3508 2 7.29012 3.69715 2.09907 0 1 1 0.013197 
1639 1 7.80667 4.39178 2.17337 0 0 0 0.0526553 
1277 1 7.29603 3.85476 3.0234 0 0 -1 0.060067 
1536 1 8.0947 3.24147 2.39665 0 0 0 0.0705963 
3869 2 8.27456 3.94777 2.86344 0 0 -1 0.0180307 
533 1 8.69387 4.01435 1.71198 0 0 0 0.00622482 
1158 1 9.08523 3.55662 2.77857 0 0 0 0.0184535 
1035 1 8.88639 4.672 2.49564 0 0 1 0.00786492 
1347 1 1.21531 6.11685 1.86897 0 1 -1 0.101006 
1362 1 8.66099 9.06434 0.0427855 0 0 0 0.0495774 
3095 1 0.949692 5.15897 2.17965 1 0 0 0.0734826 
829 1 0.470455 5.90143 2.75234 0 0 0 0.0488132 
3608 2 1.43551 5.72191 2.68902 0 0 0 0.127963 
119 1 1.58532 5.0351 3.31571 0 0 1 0.103156 
118 1 2.0126 5.1863 2.24528 0 0 0 0.021118 
99 1 2.16775 5.93427 3.03604 0 0 0 0.00247107 
633 1 2.26354 6.32164 2.10204 0 0 0 0.0062831 
3532 2 2.70335 5.40673 2.71587 0 1 0 0.0298911 
86 1 2.97815 5.534 1.89842 0 0 0 0.0180136 
1004 1 3.44193 4.89061 2.64762 0 0 1 0.0270372 
1994 1 3.96383 5.73799 2.10843 0 0 0 0.0539032 
64 1 4.46804 5.09137 2.86822 0 0 -1 0.0290705 
875 1 3.12304 6.25909 2.66778 0 1 1 0.0450472 
157 1 4.47957 6.12213 2.93057 0 0 1 0.012586 
3520 2 3.74467 5.6317 2.95899 0 0 0 0.0247028 
1139 1 4.58501 5.20016 1.45556 0 0 0 0.159122 
3037 1 5.21229 5.75705 2.04612 1 0 0 0.0618451 
525 1 5.96214 5.08563 1.68203 0 0 0 0.00532852 
4053 2 6.18886 4.60991 2.4373 0 0 -1 0.0730529 
827 1 6.13241 5.47775 2.63257 0 0 0 0.0676163 
3575 2 6.34194 6.13894 3.106 0 1 0 0.0600843 
1083 1 8.04389 4.94254 3.05194 0 0 0 0.0224357 
662 1 6.9715 5.46536 1.80304 0 0 1 0.0551865 
635 1 7.08694 4.87135 2.82063 0 0 0 0.0825843 
579 1 7.21021 6.00678 2.85505 0 0 0 0.0489345 
1628 1 8.03323 5.53154 2.22482 0 0 0 0.0633625 
3475 2 8.10973 5.82202 3.27692 0 0 -1 0.135324 
724 1 4.1181 9.23696 3.87083 0 0 0 0.0599473 
1040 1 8.8502 6.19576 1.73738 0 0 1 0.0940457 
412 1 0.263972 1.45652 4.17315 0 1 1 0.0390052 
1156 1 8.91569 5.74097 2.81551 0 0 0 0.0363404 
2468 1 0.388651 7.00337 2.80501 1 0 0 0.0539277 
3347 1 1.03838 7.19896 1.9808 1 0 0 0.0138758 
2790 1 1.6285 6.75302 2.8026 1 0 -1 0.0305684 
273 1 1.47654 7.7878 3.00482 0 0 -1 0.0675697 
3072 1 0.531708 7.87796 3.36554 1 0 0 0.203498 
3920 2 0.797176 7.84189 2.52161 1 0 0 0.309548 
564 1 2.62518 7.1218 2.95191 0 0 0 0.0112043 
770 1 2.029 7.35441 1.96374 0 0 1 0.0232227 
4203 2 2.30634 7.94141 2.78043 0 0 0 0.00444365 
559 1 2.89001 7.85765 2.12271 0 0 0 0.00333608 
3827 2 2.79674 6.95588 2.098 0 1 1 0.0232059 
3256 1 4.53238 6.52218 1.57296 1 0 0 0.00742518 
3257 1 3.41291 6.50603 1.69148 1 0 0 0.00765451 
3741 2 4.76337 7.51998 1.6525 0 -1 2 0.138964 
2990 1 3.91629 7.40545 1.87127 1 0 0 0.00873447 
3855 2 4.04529 6.57484 2.30158 0 0 -1 0.00739516 
895 1 4.66087 7.09267 2.53444 0 0 1 0.0116802 
1530 1 3.6754 7.04094 2.94843 0 0 1 0.0199689 
3638 2 3.75218 7.87903 2.53077 0 0 0 0.0147059 
126 1 5.49579 7.61663 2.31877 0 0 0 0.102493 
832 1 5.57246 6.8252 1.66247 0 0 0 0.0911377 
556 1 5.52552 6.4157 2.83106 0 0 0 0.0528015 
224 1 6.50826 6.34757 2.18491 0 0 0 0.130275 
1602 1 6.47602 7.3456 1.79225 0 0 0 0.218714 
1410 1 6.28311 7.07182 2.89685 0 0 0 0.124223 
1068 1 7.46965 6.36493 1.83355 0 0 0 0.1343 
1160 1 7.21244 7.15213 2.43858 0 0 1 0.077231 
3953 2 7.93856 7.60336 2.44808 0 0 -2 0.0696921 
1438 1 8.21984 6.51057 2.60683 0 0 0 0.0451484 
2840 1 9.1436 7.52831 1.69434 0 0 0 0.117788 
1539 1 8.09521 7.17925 1.70831 0 0 0 0.179536 
1652 1 8.76301 7.84064 2.70129 0 0 1 0.0177146 
1388 1 9.25577 6.81627 2.50797 0 0 1 0.00187738 
1504 1 3.13764 1.48043 4.69857 0 1 0 0.0477241 
3547 2 8.72199 7.03764 3.23675 -1 1 0 0.000770953 
2566 1 1.34607 9.17908 1.67931 1 0 0 0.0237293 
18 1 0.865214 8.24257 1.71002 0 0 0 0.00925327 
4174 2 0.377616 9.14417 3.08955 1 0 0 0.0219933 
742 1 0.963128 8.65598 2.62908 0 0 1 0.0186859 
460 1 1.8018 0.00392865 4.24557 0 1 0 0.0433408 
3976 2 4.10692 9.5807 3.05266 1 0 0 0.0310097 
136 1 1.88739 8.27591 2.11258 0 0 0 0.0295086 
3964 2 1.84746 9.16579 2.44567 0 0 0 0.00615154 
4284 2 2.68459 8.55195 1.69868 0 0 2 0.0432883 
2635 1 2.63817 8.79501 2.6182 1 0 0 0.0242763 
665 1 5.87009 8.16706 3.29071 0 0 1 0.0874554 
3973 2 4.5187 8.75292 1.44851 0 0 -1 0.160585 
144 1 3.6112 8.56719 1.8916 0 0 0 0.0276063 
644 1 4.57486 8.22542 2.16419 0 0 1 0.0596403 
3269 1 3.82526 8.70552 2.95791 1 0 0 0.025632 
774 1 4.52361 9.28452 2.27132 0 0 0 0.134758 
3815 2 5.0964 8.17245 2.92793 0 1 0 0.0627841 
307 1 5.42387 8.80887 2.34248 0 0 0 0.0205287 
3583 2 6.55834 8.68203 2.97667 -1 0 1 0.718155 
1016 1 6.35596 9.30469 2.48157 0 0 0 0.0197934 
3991 2 9.61784 6.09145 4.25624 0 1 1 0.0265145 
78 1 0.160711 1.71298 1.67197 0 0 0 0.0411272 
1752 1 7.43319 8.46707 2.51182 0 0 0 0.204968 
1832 1 6.38078 8.19969 2.32392 0 0 0 0.755622 
1442 1 7.84933 9.15043 1.84107 0 0 0 0.0552541 
4279 2 7.202 9.33668 2.46581 1 0 0 0.166466 
1529 1 6.94469 7.82588 3.20753 0 0 0 0.314806 
2447 1 8.76998 8.31444 3.7006 0 0 0 0.00752301 
1134 1 8.31086 8.22771 1.80759 0 0 1 0.0126254 
4223 2 8.7619 8.89847 1.60692 1 0 1 0.0434411 
1142 1 8.5354 8.83425 2.66796 0 0 1 0.0647676 
2717 1 0.253426 5.52268 0.170988 1 0 0 0.0452072 
751 1 9.37189 8.4737 2.13489 0 0 1 0.00951235 
4186 2 9.51632 1.28906 1.33468 0 1 1 0.0105409 
107 1 1.20398 1.10295 3.95273 0 0 0 0.0854281 
571 1 1.19951 9.43467 0.597143 0 0 1 0.0141041 
1412 1 8.3417 0.0558677 1.65512 0 1 0 0.0285065 
3410 1 2.30435 1.00093 3.88427 1 1 0 0.0656307 
333 1 2.67469 0.475914 4.71752 0 1 0 0.0848194 
4194 2 4.55492 0.389623 3.45457 1 1 1 0.0106341 
401 1 3.52774 0.830028 3.99564 0 1 0 0.0180215 
627 1 4.51513 0.789238 4.35983 0 0 0 0.0353249 
355 1 4.20329 1.70702 3.96837 0 1 0 0.0520014 
1260 1 8.43038 9.54212 1.0583 0 0 0 0.106901 
2995 1 1.78271 8.47316 4.45136 1 0 0 0.0315127 
904 1 4.97169 1.17306 3.34146 0 1 2 0.0300813 
3947 2 3.32145 7.67358 4.57374 1 0 1 0.0235644 
4038 2 5.46725 0.343173 3.3586 0 1 0 0.0218453 
2214 1 6.77135 6.90795 4.72396 0 0 1 0.0158176 
3143 1 5.57897 0.823498 4.0771 1 0 0 0.0325465 
383 1 7.10929 0.4163 3.20788 0 1 1 0.0188126 
1805 1 7.64908 1.00792 4.3217 0 1 -1 0.0476051 
1326 1 6.66278 1.11988 4.27505 0 1 -1 0.0140533 
1304 1 7.28056 1.43768 3.37142 0 1 0 0.0104189 
1235 1 0.319081 0.196755 2.71949 1 0 1 0.0163257 
730 1 5.91638 9.22282 3.50446 0 0 1 0.0855646 
2177 1 8.21022 0.615334 3.409 0 0 0 0.0197031 
2165 1 9.45587 9.42384 1.51327 0 0 1 0.0263908 
1557 1 9.15019 1.13834 3.42833 0 0 0 0.000843529 
1227 1 8.648 0.726496 4.37989 0 0 1 0.0266692 
2861 1 9.45428 7.49311 3.44182 0 0 0 0.0152983 
518 1 1.55493 2.78177 4.68804 0 0 0 0.011716 
3659 2 0.349739 2.03332 3.59105 1 1 -1 0.0340806 
814 1 1.1295 2.13276 3.97931 0 1 0 0.0581879 
2675 1 0.527614 3.09333 3.75836 1 0 1 0.0637134 
4184 2 2.66084 3.74235 3.44189 1 1 -1 0.659513 
2537 1 1.58986 2.96325 3.40077 1 0 -1 0.0886845 
1396 1 1.9799 1.81971 4.51259 0 1 0 0.0782637 
932 1 2.38434 2.34973 3.60498 0 1 1 0.0915939 
3340 1 3.12455 2.47241 4.25499 1 1 0 0.00756565 
151 1 3.20565 1.6567 3.40959 0 0 0 0.0573327 
607 1 3.93365 2.46342 3.29555 0 0 0 0.00245371 
778 1 4.17575 2.75879 4.39128 0 1 0 0.0580365 
185 1 5.15747 1.70134 4.65635 0 0 1 0.0222927 
2024 1 5.23429 2.67353 4.36091 0 0 -1 0.0178459 
1736 1 4.89499 2.27788 3.48072 0 0 1 0.0038574 
1721 1 5.80807 2.81863 3.26437 0 0 0 0.0483444 
909 1 5.79142 1.89825 3.78634 0 1 0 0.0380713 
709 1 6.17466 2.95157 4.25697 0 0 0 0.0491168 
1878 1 7.10794 9.26857 3.37124 0 0 1 0.0131888 
1566 1 6.83154 2.93521 3.37617 0 0 0 0.0533989 
3854 2 7.65412 1.86739 4.25192 1 0 -2 0.0785871 
215 1 6.7913 2.10594 3.98436 0 0 0 0.0698063 
2149 1 7.68291 2.6573 3.9514 0 0 0 0.159918 
3814 2 8.89682 3.00232 0.172948 -1 0 2 0.0256101 
517 1 5.77467 8.43001 4.38909 0 0 0 0.0110089 
1916 1 8.28507 1.74118 3.56603 0 1 1 0.0220502 
580 1 5.52056 9.55746 0.216847 0 0 1 0.0391653 
977 1 0.201078 5.98404 4.10298 0 1 1 0.0128543 
1624 1 8.51474 2.82249 3.42488 0 0 -1 0.0423053 
222 1 2.76769 8.36534 4.78886 0 0 0 0.0490852 
1678 1 9.23756 2.16087 3.76557 0 0 0 0.0123154 
3717 2 8.51604 2.42049 4.23602 0 1 1 0.0645716 
3320 1 5.18064 9.34109 4.23482 1 0 0 0.0468819 
3993 2 1.324 3.50843 4.05073 0 0 1 0.0751903 
2733 1 0.762165 4.26433 3.99126 1 0 1 0.0734198 
198 1 2.41063 3.2479 4.1966 0 0 1 0.0935159 
1728 1 1.94968 4.17561 3.83693 1 0 1 0.108603 
194 1 2.0543 4.83757 4.61688 0 0 1 0.0385296 
487 1 4.93308 8.97555 3.25184 0 0 0 0.0320856 
301 1 3.03155 4.36965 3.85727 0 1 0 0.0244321 
710 1 4.681 8.34507 4.11969 0 0 0 0.00674763 
2302 1 9.3634 5.42792 4.71045 0 0 0 0.0921019 
3155 1 3.93939 4.17512 3.35371 1 0 1 0.0843044 
1404 1 4.59501 3.46105 3.63813 0 1 1 0.0439268 
2569 1 3.4352 3.31185 3.54725 1 0 0 0.0237442 
2989 1 4.15462 4.20252 4.33799 1 0 0 0.0171528 
3028 1 0.156979 6.6473 1.86894 1 0 0 0.0768702 
335 1 4.87825 4.69658 3.69272 0 1 -1 0.0601508 
2553 1 5.46202 3.83987 4.01363 0 0 -1 0.00293285 
1874 1 6.52043 3.83099 3.76768 0 1 0 0.0254849 
33 1 6.16074 4.64795 4.26216 0 0 -1 0.023579 
1141 1 5.05425 4.54691 4.79041 0 0 0 0.0135146 
3612 2 6.32929 0.33293 4.69159 0 0 0 0.019311 
4165 2 9.57771 7.63366 2.516 0 0 1 0.0136407 
3864 2 7.29168 3.49014 3.96292 0 1 -1 0.0326762 
1532 1 7.27864 4.55029 3.81624 0 0 0 0.0119072 
1143 1 8.10005 3.89036 3.73001 0 0 1 0.00940598 
353 1 2.33288 9.5618 0.461293 0 0 0 0.0899066 
1193 1 8.85796 3.33134 4.27737 0 0 1 0.0187681 
3006 1 8.77112 4.4317 4.71162 1 0 0 0.0325369 
3780 2 9.01944 3.77582 3.56573 0 0 2 0.0115745 
821 1 3.14208 7.97336 3.1905 0 0 0 0.0180508 
2528 1 9.01452 4.65056 3.59767 0 0 0 0.040723 
12 1 0.244749 7.79328 1.06651 0 0 0 0.0106445 
4253 2 0.446452 5.31736 3.58548 1 0 0 0.0543358 
3839 2 1.23273 6.11887 4.31723 0 1 1 0.0990051 
2727 1 1.15429 5.25936 4.16744 1 0 0 0.0412408 
40 1 1.20966 6.06932 3.50221 0 0 0 0.00906474 
648 1 7.85786 3.55165 4.71525 0 0 0 0.0435817 
4122 2 0.478079 6.54106 3.48859 1 -1 0 0.0435099 
3902 2 2.41582 4.94163 3.84611 1 0 1 0.0368184 
521 1 2.06873 5.75113 4.0079 0 0 0 0.0399237 
3640 2 2.78792 6.42683 3.38486 0 -1 1 0.0228258 
221 1 2.91772 6.24539 4.35447 0 0 0 0.0196273 
1848 1 2.98578 5.14972 4.53604 0 1 -1 0.0102348 
1653 1 3.04397 5.48409 3.47266 0 0 0 0.00489102 
1645 1 3.44817 3.43147 4.52045 0 0 0 0.0574162 
3477 2 3.63069 5.72258 4.39921 0 -1 -2 0.00184067 
1392 1 3.89129 5.12385 3.83614 0 1 1 0.0143328 
3523 2 4.6099 5.65719 3.68519 0 0 1 0.0407068 
1048 1 3.71759 6.24845 3.65911 0 0 0 0.00573466 
3141 1 5.39558 5.43224 3.28763 1 0 0 0.0703792 
1654 1 5.37664 5.43363 4.29176 0 0 0 0.0271798 
172 1 5.88111 4.54918 3.25041 0 0 0 0.200384 
600 1 2.72275 8.77466 3.8809 0 0 0 0.00097659 
3600 2 8.03937 5.94253 4.48431 0 0 0 0.0457005 
4159 2 7.09902 6.20288 4.23981 0 0 0 0.0126605 
1445 1 6.58536 5.41747 3.5753 0 0 1 0.0808078 
4100 2 6.94051 5.04644 4.42912 1 0 1 0.0227794 
2108 1 7.54277 5.58541 3.93206 0 0 0 0.0224437 
3798 2 8.18702 4.70021 3.89074 0 1 -1 0.0571189 
4233 2 3.75561 0.160904 3.29712 1 1 1 0.0368613 
465 1 1.86424 8.71153 3.24521 0 0 0 0.0121744 
519 1 6.64055 9.55852 0.337083 0 0 0 0.135167 
2037 1 8.65963 5.5286 3.9281 0 0 -1 0.0079461 
1876 1 8.20895 6.48453 3.70607 0 0 0 0.0230901 
3426 1 0.61214 7.93506 4.4038 1 0 0 0.0433998 
3044 1 8.50092 1.66343 4.6518 1 0 0 0.0580126 
2736 1 0.0614761 3.79674 3.10158 1 0 0 0.0540863 
2119 1 0.648849 6.79182 4.72552 1 -1 1 0.0753912 
466 1 1.04044 7.11823 3.7805 0 0 1 0.0605184 
4240 2 1.31036 7.99741 3.88464 1 -1 0 0.010686 
2929 1 7.75032 8.38442 3.49155 0 0 1 0.0793697 
2556 1 2.21582 7.7905 3.75579 1 0 1 0.0382887 
434 1 2.06602 6.80372 3.83082 0 0 0 0.0257572 
666 1 3.16687 7.19492 3.82757 0 0 0 0.00426778 
1244 1 4.29564 7.8653 3.18774 0 0 0 0.0209635 
3694 2 9.11359 0.228479 3.43322 0 1 1 0.0113439 
534 1 4.25762 7.20367 4.04621 0 0 0 0.0342822 
3763 2 4.531 6.83615 3.31192 1 0 1 0.0765462 
946 1 7.35726 2.43082 0.170014 0 1 1 0.0682697 
430 1 5.231 7.3449 3.40334 0 0 0 0.0672683 
1275 1 5.24515 7.46054 4.42934 0 0 0 0.0363353 
766 1 5.16332 6.41558 3.831 0 0 0 0.0981983 
57 1 6.20833 6.38706 3.85214 0 0 0 0.0484378 
1988 1 6.2761 7.4373 3.94302 0 0 0 0.110076 
1039 1 3.63888 8.27256 4.00692 0 0 1 0.0123342 
584 1 9.56776 1.36133 2.50141 0 0 0 0.0875282 
3041 1 7.15516 6.80514 3.53353 1 0 -1 0.0481628 
1705 1 7.36514 7.6891 4.25831 0 0 1 0.117 
177 1 7.9754 7.42654 3.33782 0 0 0 0.00453103 
2685 1 9.22873 6.38871 3.5992 0 0 0 0.0515972 
1453 1 8.73547 7.29036 4.11975 0 0 0 0.0022652 
3092 1 3.43784 9.12873 4.62461 1 0 0 0.0193858 
3071 1 6.7296 8.46707 4.00644 1 0 0 0.0167738 
4137 2 1.4906 9.38002 4.26902 1 1 1 0.112419 
2169 1 0.933836 8.85096 3.68033 1 0 0 0.025918 
305 1 0.0515096 3.51984 1.32223 0 1 -1 0.0430595 
1353 1 0.711016 0.466735 4.69566 0 1 0 0.0048276 
1349 1 7.30394 9.44815 4.33741 0 0 -1 0.0406847 
541 1 6.93977 9.59905 1.61052 0 0 0 0.0115342 
43 1 4.50605 7.94299 0.00898689 0 0 0 0.0147263 
787 1 7.64217 4.71488 4.7853 0 0 0 0.00204147 
3840 2 9.54525 5.10089 2.87232 0 0 0 0.0221317 
630 1 2.33161 9.47648 4.77041 0 0 0 0.0241412 
3096 1 1.35031 9.53542 3.04093 1 0 1 0.019051 
1104 1 8.3196 2.04351 0.1743 0 0 0 0.036106 
2711 1 2.24797 1.8177 0.144902 1 1 1 0.0302639 
184 1 9.64168 3.16034 3.6285 -1 0 0 0.0448705 
1218 1 0.126772 4.67814 1.61739 0 0 2 0.0223265 
1717 1 9.60867 1.53571 4.46731 0 0 1 0.0111359 
1192 1 6.35953 5.62273 4.6231 0 0 1 0.0385063 
2357 1 8.97813 4.92172 0.120852 0 0 0 0.0663271 
3903 2 9.00759 0.371495 0.177812 0 1 -1 0.031684 
431 1 0.391636 2.48684 4.7456 0 1 0 0.029889 
4103 2 2.34868 5.70191 4.79341 1 0 -1 0.112716 
1526 1 9.62969 8.42072 0.0123897 0 0 1 0.0103663 
2105 1 6.91042 3.9249 4.81316 0 0 0 0.00816628 
3024 1 0.90968 0.744387 5.71218 1 1 0 0.0194633 
3558 2 0.276939 1.35073 5.94324 1 0 1 0.0246056 
2082 1 7.56849 0.184924 5.88284 0 0 0 0.0213813 
2956 1 9.55718 0.548691 7.93106 1 1 0 0.0639051 
439 1 3.78709 9.54379 5.652 0 0 -1 0.0277947 
1276 1 1.87449 0.639323 6.12239 0 0 -1 0.029163 
4300 2 1.57427 1.32891 5.65294 0 1 0 0.0224926 
2933 1 2.37509 1.32835 5.5129 0 1 0 0.0444658 
3994 2 0.129096 4.26635 4.89139 1 0 0 0.0290496 
1764 1 2.94223 0.487427 5.92754 0 1 -1 0.0354673 
4273 2 4.23004 1.01089 5.74216 1 1 0 0.0542118 
1720 1 3.70367 0.625932 5.09307 0 0 0 0.0622288 
578 1 3.39881 1.49884 5.7319 0 0 0 0.0669939 
3999 2 4.40269 8.831 9.46211 0 0 0 0.0173607 
582 1 4.97425 0.944369 5.24064 0 0 0 0.0262428 
471 1 4.75376 0.39175 6.17103 0 1 1 0.0825717 
417 1 5.66261 0.935778 6.10198 0 1 0 0.0228354 
2048 1 6.01369 1.03386 5.09456 0 0 -1 0.0330834 
1688 1 7.58798 0.133183 8.65649 0 0 0 0.0305943 
2201 1 6.89263 0.752817 5.2607 0 0 0 0.0108357 
880 1 6.4709 0.308853 6.22029 0 1 0 0.03333 
1710 1 7.91633 1.19306 5.41782 0 0 1 0.0380127 
4061 2 9.57393 6.65917 6.5787 0 1 1 0.0356389 
286 1 7.25759 1.08543 6.30162 0 1 0 0.0429008 
1310 1 6.56143 1.68468 5.7226 0 1 0 0.0782864 
1036 1 9.12535 1.11958 5.31262 0 0 1 0.00430246 
1291 1 8.48297 0.697325 6.23684 0 1 0 0.0438623 
2780 1 9.37699 4.33472 8.86021 0 1 -1 0.148196 
2493 1 9.25962 1.3946 6.32009 0 0 0 0.0172244 
3579 2 0.615184 0.84758 8.04242 0 0 0 0.12144 
4048 2 0.980526 2.49658 5.39523 1 1 0 0.0120046 
141 1 0.980864 1.89393 6.03668 0 0 0 0.00999041 
1527 1 0.407269 3.04429 5.79938 1 0 -1 0.0127959 
154 1 1.45114 3.19764 5.59362 0 0 0 0.00503151 
3324 1 1.81849 2.22901 5.54549 1 1 0 0.0234622 
2319 1 2.94597 1.07036 9.63546 0 0 -1 0.0637362 
1521 1 2.34142 3.19756 6.11143 0 0 0 0.0395766 
3488 2 9.49577 7.50457 8.78972 -1 0 -1 0.213882 
1131 1 2.80127 2.27283 6.0833 0 0 0 0.0247013 
1371 1 9.62451 3.33892 6.18666 0 1 0 0.0124556 
1069 1 4.54086 1.74506 6.08358 0 0 0 0.0195745 
248 1 4.67849 2.46033 5.31468 0 0 0 0.0236056 
83 1 4.03397 2.72135 6.12574 0 0 -1 0.0245084 
1425 1 3.48459 2.41815 5.30186 0 1 0 0.0171691 
3503 2 4.063 3.14805 5.2735 0 0 1 0.00819546 
1801 1 5.3128 2.69564 6.31499 0 1 0 0.0467091 
3727 2 6.0412 2.08397 6.35222 0 1 -1 0.0560709 
881 1 5.54559 2.97347 5.33695 0 1 1 0.0388617 
2093 1 5.46779 1.88058 5.66289 0 0 0 0.0518375 
1082 1 6.44078 2.73491 5.81072 0 0 -1 0.0716369 
1117 1 7.55831 2.15525 5.80228 0 0 0 0.0312285 
632 1 4.15055 5.09585 4.8383 0 0 0 0.00631447 
2097 1 8.67258 2.01497 5.60152 0 0 0 0.0103642 
3688 2 9.38719 2.60265 5.75504 0 0 2 0.00832655 
4301 2 8.23886 2.64454 6.06712 0 0 0 0.0933143 
941 1 0.726983 4.00357 5.71979 0 1 0 0.0241691 
914 1 2.17181 0.148989 8.30631 0 1 0 0.0366793 
1826 1 8.9191 8.21898 8.84052 0 0 -1 0.0995677 
3078 1 4.49774 0.0457436 5.19347 0 0 -1 0.0340094 
3021 1 8.194 8.01753 9.48445 1 0 -1 0.00319144 
3747 2 1.98983 3.84413 5.57752 0 0 0 0.0828597 
389 1 1.72762 4.6385 5.73979 0 1 0 0.0562852 
719 1 2.61699 4.23692 6.04738 0 0 1 0.0162564 
1321 1 1.61808 3.83517 6.39835 0 0 0 0.00768715 
1477 1 3.31697 3.43324 5.65753 0 1 0 0.0160475 
2068 1 8.41892 0.235274 5.26465 0 0 0 0.0080903 
1924 1 4.75169 3.52878 5.85527 0 0 0 0.00461605 
341 1 4.06489 4.17517 5.36278 0 1 0 0.0181086 
4042 2 3.90128 3.60898 6.33757 0 1 1 0.00513237 
4010 2 2.62207 2.64272 9.24969 0 0 -1 0.0399783 
1074 1 5.19523 4.49062 5.80325 0 0 0 0.008408 
4088 2 6.17541 4.43384 5.8447 1 0 -1 0.0249425 
1136 1 5.89373 4.03102 5.09029 0 0 0 0.011987 
1565 1 5.69955 3.69398 6.20421 0 0 -2 0.0118887 
127 1 7.54061 3.35775 5.66576 0 0 0 0.0148104 
4117 2 6.37872 3.30096 5.16732 0 0 0 0.0510244 
1819 1 6.6699 3.78992 5.8489 0 0 0 0.0126315 
3970 2 7.36208 4.29249 5.61799 0 1 -1 0.0765399 
96 1 6.89344 4.7706 6.3043 0 0 0 0.0372979 
1261 1 7.69285 4.15466 6.47211 0 0 0 0.028122 
1292 1 8.68897 3.15908 5.53018 0 0 0 0.128071 