ITEM: TIMESTEP
9600
ITEM: NUMBER OF ATOMS
4320
ITEM: BOX BOUNDS xy xz yz pp pp pp 
0 19.3486 0.03862
0 19.31 0
0 9.655 0
ITEM: ATOMS id type x y z ix iy iz msd_nonAffine 
3378 1 1.07184 0.551129 0.448219 1 1 1 0.00624377 
486 1 1.47819 0.849587 1.29768 0 1 1 0.0369253 
3226 1 8.20846 9.45715 4.01414 1 0 0 0.0249143 
332 1 0.975755 1.64655 0.933487 0 1 0 0.0262631 
964 1 2.20579 0.573425 0.4013 0 1 1 0.0147619 
979 1 0.0731654 0.85641 0.93401 0 1 0 0.0292342 
3697 2 1.90429 1.34832 0.716079 1 1 1 0.0264339 
135 1 2.86019 1.47668 0.980636 0 1 1 0.0271058 
1553 1 4.36957 0.849373 0.530765 0 0 0 0.0506331 
4065 2 3.66319 1.42962 0.480025 1 1 1 0.0150699 
1198 1 3.44843 0.544056 0.977288 0 0 1 0.099531 
868 1 3.8409 1.34424 1.44795 0 1 0 0.00302626 
3422 1 4.43727 0.375313 1.59557 1 1 0 0.0571505 
1493 1 4.8446 1.36087 1.32443 0 1 1 0.034481 
4074 2 5.09893 0.509899 0.961613 0 1 1 0.0165783 
3203 1 5.38802 1.04372 0.285977 1 0 0 0.0111833 
1264 1 6.00603 1.28801 1.10242 0 1 0 0.0239705 
376 1 5.94682 0.256228 0.816083 0 1 0 0.00485993 
3758 2 6.31254 0.668769 1.64554 0 0 1 0.0250493 
663 1 6.90195 0.563468 1.10204 0 0 0 0.0808924 
963 1 6.64673 1.24914 0.311324 0 1 1 0.0461466 
4222 2 6.62331 0.378029 0.279875 1 0 -1 0.00358827 
3797 2 7.59438 0.0489959 1.05432 0 1 -1 0.0748205 
1192 1 6.14664 5.71469 4.81415 0 0 1 0.0619101 
2154 1 7.84845 0.841206 1.48395 0 0 1 0.0183303 
4078 2 8.2772 1.1411 0.38498 0 1 0 0.113397 
1783 1 9.44881 0.557045 1.02294 0 1 0 0.0128448 
1177 1 8.81645 1.31336 0.966936 0 0 1 0.0306797 
2805 1 8.40281 0.319152 0.756105 1 1 1 0.0391019 
4118 2 5.77057 9.46755 2.08854 1 1 1 0.0357146 
4233 2 3.62818 0.0832942 3.29902 1 1 1 0.0335017 
184 1 9.60659 3.11198 3.7439 -1 0 0 0.00812577 
3309 1 0.168886 5.81708 1.09723 1 0 0 0.0337 
2926 1 1.66015 2.2853 0.550476 1 1 1 0.0181618 
2794 1 0.470866 2.5446 0.955953 1 0 0 0.0216151 
3597 2 0.769557 3.18885 1.40576 0 1 0 0.0950109 
938 1 0.619712 3.58892 4.73402 0 1 0 0.0620195 
885 1 2.65875 2.50669 0.834496 0 1 1 0.0169218 
1787 1 8.05966 0.0227906 4.27197 0 1 0 0.0403487 
512 1 1.79841 3.08301 1.1685 0 0 0 0.0154185 
3535 2 3.27595 2.99757 1.24197 0 1 0 0.0232312 
1722 1 7.87229 0.162801 2.67672 0 0 1 0.0701825 
3224 1 4.53683 1.9487 0.446092 1 1 0 0.00204485 
1822 1 3.69844 2.22179 0.964216 0 1 0 0.00114266 
1031 1 4.67375 2.61374 1.34568 0 0 0 0.00556418 
3604 2 4.08693 2.65923 0.283206 0 0 0 0.0107515 
4308 2 4.39196 1.9321 1.76993 0 0 1 0.036829 
640 1 4.91969 2.89649 0.275185 0 0 1 0.0275605 
1704 1 5.98694 2.90112 0.313678 0 0 1 0.0248078 
1140 1 3.15443 7.62084 0.108369 0 0 0 0.0223524 
100 1 5.60511 3.10499 1.31979 0 0 0 0.0124364 
951 1 5.47135 2.1531 0.789008 0 1 1 0.0213382 
1055 1 7.53592 1.64204 0.791801 0 0 0 0.00974098 
3784 2 6.81773 1.61202 1.33824 0 0 -1 0.0173833 
629 1 6.60164 2.19026 0.721346 0 0 0 0.025016 
1563 1 7.37292 2.60045 1.31468 0 0 0 0.014508 
576 1 8.18515 3.25223 0.512265 0 0 0 0.0165287 
1632 1 8.16045 1.9191 1.55749 0 0 0 0.00225341 
3737 2 8.11593 2.44378 0.859475 1 1 0 0.0542022 
3175 1 9.11768 2.39355 0.878428 1 0 1 0.0356579 
1395 1 8.3561 2.91943 1.5799 0 1 1 0.0230267 
2451 1 9.04737 8.95049 4.38808 0 0 1 0.0161662 
3028 1 0.245331 6.54466 1.91262 1 0 0 0.171766 
3383 1 1.05509 3.2392 0.332587 1 0 1 0.0925429 
547 1 1.05731 4.00516 1.24547 0 0 1 0.0278866 
2997 1 0.414015 4.13334 0.393795 1 0 0 0.0255511 
72 1 1.59818 4.10325 0.312289 0 0 0 0.0221786 
3903 2 9.0655 0.517529 0.15472 0 1 -1 0.0465937 
2214 1 6.55597 6.67471 4.80014 0 0 1 0.0404423 
2007 1 1.98072 4.57278 1.23779 1 0 0 0.00421423 
431 1 0.408704 2.46017 4.79013 0 1 0 0.0173057 
3150 1 2.63448 3.60103 1.01484 1 0 0 0.0765163 
1485 1 4.06624 3.29992 0.856005 0 1 1 0.013068 
380 1 4.61504 4.00625 0.2268 0 1 1 0.0163384 
34 1 3.57738 4.10408 0.488606 0 0 0 0.0233404 
1056 1 4.77789 3.8652 1.34899 0 0 0 0.0348038 
965 1 3.55668 3.71557 1.62871 0 0 1 0.0296172 
3915 2 5.2635 3.60369 0.701754 0 1 1 0.0487595 
555 1 5.29507 4.6461 0.684864 0 0 0 0.0143362 
1214 1 6.13161 4.03448 0.955706 0 0 1 0.113553 
910 1 5.79322 3.89666 1.91668 0 1 0 0.158559 
810 1 7.01232 3.3474 0.58483 0 1 1 0.00302844 
3522 2 0.140047 1.72993 0.789153 0 0 0 0.031822 
981 1 7.40619 4.36759 0.2776 0 1 0 0.0234031 
3546 2 6.94596 4.14636 1.02941 0 0 1 0.00385684 
2081 1 7.67166 3.8206 1.42121 0 0 0 0.0260582 
2050 1 6.69012 3.43386 1.62213 0 0 0 0.0438199 
1216 1 9.04779 9.41272 3.33312 0 0 0 0.042744 
639 1 9.16266 3.50369 0.92984 0 0 0 0.0327394 
1153 1 9.54501 4.66325 1.03655 0 0 0 0.0172265 
1946 1 8.41613 4.28584 0.717228 0 1 0 0.00848209 
3094 1 0.991782 4.98399 0.774971 1 0 0 0.0405916 
2010 1 1.18514 6.0234 0.421681 1 0 0 0.0368539 
3569 2 0.308436 6.41159 0.323517 0 0 2 0.0807831 
3376 1 1.88027 6.48691 4.80008 1 1 -1 0.00166538 
571 1 1.22126 9.5428 0.62279 0 0 1 0.00356202 
4081 2 2.08206 5.99593 0.394801 1 1 0 0.118525 
1976 1 1.81376 5.63123 1.1912 0 0 1 0.0421593 
2670 1 2.04936 5.04376 0.138651 1 0 1 0.145906 
1042 1 2.74097 6.09598 0.957305 0 0 1 0.0467862 
1233 1 2.83302 4.99342 0.824488 0 0 1 0.0128894 
187 1 2.136 3.24656 0.112353 0 0 0 0.00393152 
3059 1 3.60013 4.73011 1.4293 1 0 0 0.0507487 
2654 1 4.3269 5.00006 0.491839 1 0 1 0.0153552 
138 1 3.73554 5.67549 0.982906 0 0 1 0.02957 
3671 2 3.52882 5.11922 0.312821 0 0 1 0.00592586 
3034 1 4.88466 5.79754 1.10603 1 0 0 0.0179958 
3971 2 5.74283 5.37975 0.817566 0 0 0 0.0509033 
146 1 6.48164 6.0645 0.483785 0 0 0 0.0114497 
655 1 5.89976 6.00021 1.45396 0 0 0 0.0242613 
1422 1 6.30023 9.33298 4.70255 0 0 1 0.0132215 
2653 1 7.60107 4.86846 1.18107 0 0 1 0.0144743 
537 1 6.59652 4.96434 0.780118 0 0 0 0.0233903 
80 1 7.37371 5.90575 0.965787 0 0 -1 0.0197753 
4073 2 8.08485 6.09933 1.44193 0 0 0 0.0394746 
3679 2 7.87503 5.25309 0.429626 0 1 2 0.057936 
3412 1 1.83941 0.070592 3.36729 1 1 0 0.0488257 
787 1 7.62478 4.68268 4.65986 0 0 0 0.0166306 
630 1 2.31697 9.59042 4.72756 0 0 0 0.0267676 
2497 1 8.53273 5.76216 0.757101 0 0 0 0.0396047 
1215 1 8.62001 5.01912 1.53697 0 0 1 0.0135042 
2000 1 8.07963 9.59521 2.92527 0 0 0 0.00390499 
1252 1 7.474 0.631494 0.218687 0 1 1 0.0516501 
1077 1 0.872816 6.80502 1.01896 0 0 0 0.0396169 
17 1 1.51251 7.71223 1.15003 0 0 1 0.0155246 
1235 1 0.175119 0.0112014 2.70742 1 0 1 0.0160933 
2250 1 1.89087 6.63717 1.06647 1 0 0 0.0837534 
2303 1 2.18507 7.80769 0.351814 1 1 0 0.0175751 
3731 2 2.35969 7.8595 1.47684 0 0 0 0.02325 
759 1 2.53049 6.78058 0.167299 0 0 1 0.00396198 
1830 1 2.76265 7.15179 1.31175 0 0 0 0.0233299 
2319 1 3.12919 0.915103 0.0431227 0 0 0 0.0485974 
961 1 4.29395 6.43277 0.466885 0 1 1 0.0247494 
3878 2 3.416 6.50512 0.725104 0 0 2 0.0371751 
543 1 3.78248 7.21577 0.888584 0 0 1 0.0191955 
3626 2 5.97277 1.75557 0.243357 0 0 0 0.0285641 
985 1 5.53964 6.49416 0.595042 0 0 1 0.0149259 
270 1 4.8107 7.26069 0.879285 0 0 0 0.0761211 
1191 1 6.30383 7.82703 0.972108 0 0 0 0.0500376 
4287 2 5.62674 7.25094 0.952621 0 0 0 0.0841661 
768 1 1.72668 3.82546 4.66263 0 1 0 0.0304781 
1963 1 5.58104 7.84046 0.170541 0 0 1 0.0605923 
3539 2 7.0894 6.64246 0.447126 0 0 1 0.0121582 
1101 1 7.90176 6.74636 0.678191 0 0 1 0.00637063 
1364 1 7.26965 7.53582 0.559787 0 0 0 0.0576307 
1222 1 6.53352 6.85691 1.17007 0 0 0 0.0433662 
1980 1 7.39294 7.376 1.64998 0 0 0 0.255857 
1717 1 9.62684 1.40948 4.53847 0 0 1 0.0531372 
2416 1 8.33591 7.66147 0.832052 0 0 1 0.0211885 
551 1 9.07917 6.68142 0.889396 0 0 0 0.0333818 
43 1 4.29078 7.85757 0.0847012 0 0 0 0.0380146 
303 1 9.43308 2.54626 2.82161 0 1 0 0.0344274 
646 1 0.945523 8.54548 0.762772 0 0 1 0.0803497 
3126 1 0.348074 9.31704 1.33086 1 0 1 0.033519 
1104 1 8.46956 2.02968 0.198056 0 0 0 0.0652108 
121 1 2.17253 8.62766 1.08463 0 0 0 0.122362 
2833 1 2.80851 8.71909 0.320497 1 0 1 0.0129639 
959 1 3.24231 8.1725 1.20115 0 0 0 0.028725 
998 1 3.15393 9.23398 1.17617 0 0 1 0.00136599 
3124 1 9.51785 3.09773 1.89762 0 0 1 0.0275698 
645 1 4.33945 8.19726 1.22714 0 0 1 0.020421 
203 1 3.87948 8.81279 0.502557 0 0 1 0.0132964 
2099 1 0.0165602 7.17647 3.93148 1 0 0 0.0454583 
228 1 5.42586 9.21642 1.34675 0 0 0 0.141528 
2263 1 5.00723 8.67216 0.552853 0 0 0 0.027113 
1120 1 5.41205 8.06915 1.41561 0 0 0 0.0578044 
3064 1 6.18016 8.71512 0.435906 1 0 0 0.00989651 
204 1 6.27815 8.62085 1.6582 0 0 0 0.266586 
1645 1 3.56562 3.4351 4.68124 0 0 0 0.0121203 
3629 2 7.69708 8.11033 1.32491 0 0 0 0.628334 
1613 1 7.03868 8.68662 0.942695 0 0 1 0.0192166 
2757 1 7.71699 9.38884 0.211693 0 0 0 0.0500999 
3991 2 9.55574 6.01386 4.20404 0 1 1 0.00731823 
2626 1 8.0874 8.66 0.831433 0 0 0 0.0920354 
1908 1 9.1789 8.47598 0.969245 0 0 0 0.0256393 
4241 2 9.40122 9.23232 0.642837 0 0 1 0.0785399 
2165 1 9.55823 9.35499 1.48171 0 0 1 0.00575417 
12 1 0.282671 7.74135 1.08373 0 0 0 0.0394531 
1694 1 6.33564 7.03639 0.173393 0 0 1 0.0090674 
2551 1 0.597763 0.589341 1.84956 1 0 0 0.0411164 
3279 1 1.04692 0.476416 2.89987 1 1 0 0.0254544 
597 1 1.22847 1.38222 2.19602 0 0 0 0.00404671 
993 1 0.585901 1.34211 3.08221 0 1 0 0.0128597 
78 1 0.17834 1.70643 1.69334 0 0 0 0.0348111 
697 1 2.34227 9.45042 1.80659 0 0 0 0.00608304 
3011 1 2.04431 1.68973 1.5 1 0 0 0.057948 
2595 1 2.15191 0.751927 2.33536 0 0 0 0.00790344 
2565 1 1.7487 1.42331 3.07997 1 0 0 0.00241163 
1262 1 2.63783 1.62251 2.58873 0 1 0 0.0664892 
950 1 3.16279 0.705347 1.98355 0 1 0 0.00481255 
1238 1 2.87392 0.48356 3.0964 0 0 0 0.0509606 
4130 2 3.96917 0.934475 2.19351 0 0 -1 0.0437578 
3430 1 4.70546 1.3089 2.37972 1 1 1 0.0295192 
3272 1 4.07135 0.851628 3.08833 1 1 0 0.000393867 
416 1 5.03473 0.304621 2.69955 0 1 1 0.0071908 
1875 1 5.53025 0.66586 1.84006 0 1 1 0.0304221 
3905 2 5.58955 1.08747 2.61829 1 1 0 0.00921366 
2405 1 6.33248 1.35501 2.17639 0 1 0 0.026704 
27 1 6.12021 0.352737 2.65106 0 1 0 0.0264505 
2689 1 6.26766 1.06721 3.37007 1 0 0 0.0374461 
3459 2 6.95689 1.19744 2.75131 0 0 0 0.0275313 
1032 1 7.15761 0.621316 2.16132 0 0 0 0.0329482 
820 1 7.88882 1.19894 2.6328 0 1 0 0.054297 
626 1 1.47406 7.02633 0.156743 0 0 0 0.0431574 
1863 1 8.77685 1.03741 2.02843 0 1 0 0.0371155 
1231 1 8.94312 0.3263 2.74263 0 0 1 0.0319411 
3639 2 8.7772 1.17876 2.93238 0 0 1 0.0479523 
3247 1 3.8674 0.0608839 2.42714 1 1 0 0.0151162 
89 1 1.21125 2.30494 1.70332 0 0 -1 0.0145225 
4236 2 0.158883 1.85659 2.59004 1 0 0 0.00958464 
1234 1 0.299679 2.71293 2.03892 0 0 0 0.0187572 
2910 1 0.94957 2.2468 2.70732 1 0 1 0.0862989 
4068 2 0.801696 3.13371 2.84666 1 0 -1 0.0613956 
1647 1 1.34462 3.2047 2.16406 0 0 0 0.00601906 
1944 1 3.42494 9.60047 2.35108 0 0 0 0.0130837 
288 1 2.72126 3.14904 1.92091 0 1 0 0.0380409 
3586 2 2.15497 2.51064 1.62017 0 0 1 0.00560288 
636 1 2.04742 2.50639 2.53943 0 0 0 0.0423665 
3377 1 2.99658 2.84073 2.88952 1 1 1 0.0142038 
3319 1 2.99763 2.1135 1.80861 1 1 0 0.0128495 
3952 2 4.39126 1.66361 3.14289 1 1 0 0.00763018 
1123 1 3.68717 1.7059 2.51323 0 0 0 0.00449239 
538 1 3.79093 2.72626 2.01247 0 0 0 0.0194184 
610 1 4.57658 2.33277 2.52278 0 0 0 0.0195032 
4097 2 5.17376 2.91183 2.94732 0 0 1 0.0146542 
527 1 5.41856 2.04424 1.86323 0 0 0 0.0111339 
427 1 6.43059 2.3735 1.73405 0 1 0 0.0127898 
699 1 5.52598 1.87686 2.87691 0 0 1 0.0320784 
1026 1 5.95668 2.95025 2.48194 0 0 0 0.0573597 
354 1 7.30834 1.81977 2.09965 0 1 0 0.025573 
4141 2 7.86809 2.54824 2.16077 0 2 0 0.0218244 
2060 1 6.61362 2.06812 2.97022 0 0 0 0.0412864 
753 1 7.12603 2.90819 2.33671 0 0 1 0.0278714 
2422 1 7.70887 2.39484 3.04227 0 1 1 0.0109034 
1250 1 9.29238 1.99969 1.75552 0 1 0 0.022278 
706 1 8.55822 2.03284 2.55812 0 0 0 0.0139813 
1504 1 3.10689 1.42733 4.58878 0 1 0 0.0711666 
3921 2 8.73352 2.84471 2.3542 0 1 -1 0.0321723 
4165 2 9.62716 7.53153 2.32404 0 0 1 0.0364254 
1218 1 0.202271 4.61808 1.49876 0 0 2 0.0161551 
1294 1 0.543746 3.88732 2.23878 0 1 0 0.0164869 
589 1 0.618482 4.73125 2.93955 0 0 0 0.0372384 
3092 1 3.36252 9.18012 4.68703 1 0 0 0.00383533 
402 1 1.22582 3.85478 3.07926 0 0 0 0.0969577 
3556 2 2.08935 3.79213 1.74621 0 1 1 0.0180755 
613 1 2.20611 3.60966 2.66382 0 0 -1 0.114537 
2897 1 1.60802 4.39964 2.2992 1 1 1 0.0669828 
2002 1 2.61442 4.7205 3.02233 1 0 -1 0.0101906 
256 1 2.71128 4.3642 1.9167 0 0 0 0.0129778 
1433 1 4.21832 3.2496 2.82691 0 1 0 0.0128032 
3153 1 3.26482 3.76839 2.64916 1 0 1 0.0167265 
1288 1 4.3538 4.18474 2.31981 0 1 0 0.0528087 
1181 1 4.9856 3.17322 2.1371 0 0 0 0.0740797 
3295 1 5.40763 3.81086 2.97219 1 1 0 0.0766352 
2213 1 5.36589 4.75556 2.55922 0 0 1 0.01904 
2427 1 6.4481 3.84407 2.67291 0 1 0 0.0463718 
4235 2 7.76708 3.24216 3.2215 1 0 -1 0.0106186 
649 1 6.76453 4.45457 1.79795 0 0 1 0.0048749 
3508 2 7.22584 3.81212 2.182 0 1 1 0.0130464 
1639 1 7.81113 4.47249 2.1967 0 0 0 0.0348921 
1277 1 7.41797 4.00433 3.12209 0 0 -1 0.046126 
1536 1 7.99479 3.43556 2.45028 0 0 0 0.0140938 
3869 2 8.28848 4.14615 2.93724 0 0 -1 0.0200782 
533 1 8.66455 3.96342 1.75777 0 0 0 0.00185104 
1158 1 9.00388 3.61976 2.66153 0 0 0 0.0112615 
1035 1 8.86002 4.6789 2.6079 0 0 1 0.0193647 
1347 1 1.3813 6.22907 1.91613 0 1 -1 0.300353 
3694 2 9.08875 0.162637 3.63843 0 1 1 0.0363655 
3095 1 0.84008 5.31604 1.91699 1 0 0 0.181818 
829 1 0.623983 6.07617 2.76263 0 0 0 0.0580395 
3608 2 1.43922 5.85967 2.72393 0 0 0 0.111662 
119 1 1.6729 5.0163 3.2135 0 0 1 0.105632 
118 1 1.97094 5.36046 2.18852 0 0 0 0.0509957 
99 1 2.26135 5.98963 3.04319 0 0 0 0.0137521 
633 1 2.39151 6.30562 2.03779 0 0 0 0.0166605 
3532 2 2.75313 5.4044 2.59453 0 1 0 0.0176953 
86 1 2.96203 5.45168 1.77108 0 0 0 0.033175 
1004 1 3.51389 4.85464 2.52143 0 0 1 0.00671573 
1994 1 4.1106 5.69875 2.06362 0 0 0 0.00425514 
64 1 4.42361 5.07698 2.90379 0 0 -1 0.0410893 
875 1 3.2975 6.12539 2.62864 0 1 1 0.0140052 
157 1 4.4766 6.10685 2.91997 0 0 1 0.0144791 
3520 2 3.74889 5.58922 3.12936 0 0 0 0.0142035 
1139 1 4.68875 4.96894 1.65952 0 0 0 0.0345714 
3037 1 5.19632 5.77866 2.18233 1 0 0 0.0347462 
525 1 5.78005 4.96722 1.65441 0 0 0 0.0568805 
4053 2 6.18485 4.74911 2.40175 0 0 -1 0.0302085 
827 1 6.1898 5.57693 2.60963 0 0 0 0.0281328 
3575 2 6.39316 6.26648 3.18705 0 1 0 0.0258673 
1083 1 7.85302 4.92279 3.32615 0 0 0 0.0311729 
662 1 6.89039 5.45461 1.84959 0 0 1 0.0708559 
635 1 6.96527 4.89178 2.78898 0 0 0 0.0752276 
579 1 7.19665 5.92969 2.92983 0 0 0 0.109939 
1628 1 8.04619 5.50213 2.30352 0 0 0 0.106982 
3475 2 8.0584 5.85452 3.17357 0 0 -1 0.10321 
724 1 4.16035 9.22585 4.00314 0 0 0 0.0240233 
1040 1 8.85755 6.05983 1.78181 0 0 1 0.0280293 
2717 1 0.277329 5.54208 0.0565267 1 0 0 0.0824082 
1156 1 8.90575 5.71465 2.77102 0 0 0 0.0520513 
2468 1 0.414986 7.15969 2.77205 1 0 0 0.137434 
3347 1 0.954193 7.38951 1.96721 1 0 0 0.0325362 
2790 1 1.4838 6.75158 2.79002 1 0 -1 0.0147991 
273 1 1.44553 7.8003 2.92577 0 0 -1 0.077924 
3072 1 0.476489 8.03688 3.37672 1 0 0 0.244378 
3920 2 0.580135 8.03015 2.52236 1 0 0 0.51557 
564 1 2.52845 7.25661 2.96587 0 0 0 0.0546512 
770 1 1.95413 7.22224 2.03418 0 0 1 0.0257865 
4203 2 2.30807 8.08149 2.82526 0 0 0 0.012618 
559 1 2.95374 7.86508 2.22124 0 0 0 0.0104499 
3827 2 3.05529 6.97911 2.2675 0 1 1 0.053688 
3256 1 4.4763 6.61813 1.59273 1 0 0 0.00420594 
3257 1 3.42361 6.40945 1.61673 1 0 0 0.0122475 
3741 2 4.81841 7.58533 1.78823 0 -1 2 0.0405882 
2990 1 3.91369 7.40651 1.94871 1 0 0 0.00517327 
3855 2 3.9686 6.62419 2.33939 0 0 -1 0.015486 
895 1 4.66521 7.07019 2.56508 0 0 1 0.00202711 
1530 1 3.6143 7.09278 2.9302 0 0 1 0.0109616 
3638 2 3.73177 8.03999 2.5798 0 0 0 0.00312929 
126 1 5.50869 7.70311 2.42774 0 0 0 0.0333772 
832 1 5.44016 6.85373 1.77661 0 0 0 0.0350941 
556 1 5.58708 6.4766 2.89531 0 0 0 0.027783 
224 1 6.44216 6.54361 2.26131 0 0 0 0.0259474 
1602 1 6.48153 7.56591 1.99949 0 0 0 0.0359769 
1410 1 6.31152 7.14926 3.09677 0 0 0 0.039671 
1068 1 7.42225 6.31851 1.89444 0 0 0 0.177597 
1160 1 7.2919 7.14864 2.71673 0 0 1 0.0315296 
3953 2 7.82125 7.80185 2.31555 0 0 -2 0.16676 
1438 1 8.22354 6.60768 2.5939 0 0 0 0.0313231 
2840 1 9.34964 7.50571 1.44172 0 0 0 0.0439755 
1539 1 8.32842 7.0165 1.63717 0 0 0 0.0203014 
1652 1 8.73835 7.69591 2.53849 0 0 1 0.0300323 
1388 1 9.27479 6.75864 2.44854 0 0 1 0.00789529 
3083 1 0.0813692 2.64364 3.01519 1 0 0 0.0248164 
3547 2 8.77024 6.97433 3.21399 -1 1 0 0.0158285 
2566 1 1.39046 9.1618 1.6605 1 0 0 0.0386744 
18 1 0.715384 8.44124 1.76464 0 0 0 0.0228818 
4174 2 0.434045 9.27297 3.0842 1 0 0 0.00277127 
742 1 1.04632 8.74932 2.70513 0 0 1 0.00552342 
1412 1 8.45034 0.0275237 1.74663 0 1 0 0.047918 
1089 1 7.00599 0.171304 4.45028 0 0 0 0.0467937 
136 1 1.85598 8.32338 2.05504 0 0 0 0.0191157 
3964 2 1.76871 9.21784 2.46205 0 0 0 0.00560308 
4284 2 2.85617 8.70145 1.83803 0 0 2 0.0144138 
2635 1 2.70637 8.82939 2.68507 1 0 0 0.00279233 
665 1 5.91764 8.24474 3.37468 0 0 1 0.0502902 
3973 2 4.76857 8.71421 1.73125 0 0 -1 0.175764 
144 1 3.74746 8.76944 1.94629 0 0 0 0.057995 
644 1 4.56011 8.16114 2.36116 0 0 1 0.0338505 
3269 1 3.84384 8.78089 2.96405 1 0 0 0.00514321 
774 1 4.53994 9.42389 2.46628 0 0 0 0.0527437 
3815 2 5.06776 8.16667 3.02458 0 1 0 0.0417997 
307 1 5.38536 8.81342 2.39686 0 0 0 0.00798713 
3583 2 6.22231 8.24765 2.5341 -1 0 1 0.200655 
1016 1 6.38089 9.14112 2.6419 0 0 0 0.0397901 
3320 1 5.1439 9.50322 4.35606 1 0 0 0.00560139 
1667 1 9.23649 2.43108 4.76636 0 0 0 0.0395214 
1752 1 7.88427 8.54647 2.83364 0 0 0 0.137467 
1832 1 7.18988 8.37424 2.01259 0 0 0 0.0859794 
1442 1 7.95583 9.06991 1.86732 0 0 0 0.0319149 
4279 2 7.32545 9.12002 2.49654 1 0 0 0.027023 
1529 1 7.01645 8.08692 3.05766 0 0 0 0.159908 
2447 1 8.77175 8.24632 3.62856 0 0 0 0.0110071 
1134 1 8.4659 8.16431 1.7374 0 0 1 0.0279873 
4223 2 8.73804 9.0761 1.62559 1 0 1 0.0418544 
1142 1 8.75683 8.87058 2.54159 0 0 1 0.0479922 
305 1 0.0297187 3.5451 1.27616 0 1 -1 0.0556556 
751 1 9.44988 8.35838 2.04658 0 0 1 0.0134019 
3206 1 9.62173 5.73266 0.940223 0 0 0 0.0523369 
107 1 1.20455 0.940066 3.86063 0 0 0 0.0217351 
412 1 0.248546 1.51442 4.18005 0 1 1 0.0420574 
648 1 7.89217 3.65665 4.73128 0 0 0 0.0134117 
3410 1 2.32214 1.05835 3.88385 1 1 0 0.0579165 
3814 2 9.02284 3.08755 0.0995936 -1 0 2 0.0535283 
4194 2 4.59662 0.398554 3.57181 1 1 1 0.00448565 
401 1 3.51456 0.636187 4.0659 0 1 0 0.0497657 
627 1 4.59068 0.671658 4.36604 0 0 0 0.00435763 
355 1 4.12853 1.51737 3.98005 0 1 0 0.0608474 
568 1 8.57677 8.1042 4.69098 0 0 -1 0.0361009 
2644 1 0.803786 9.19806 4.70196 1 0 1 0.051759 
904 1 5.12032 1.11441 3.39568 0 1 2 0.00572489 
3947 2 3.33688 7.68645 4.52522 1 0 1 0.00971541 
4038 2 5.60792 0.306646 3.41332 0 1 0 0.0227659 
70 1 1.78404 8.84178 0.0316036 0 0 0 0.0213012 
3143 1 5.73961 0.58465 4.19518 1 0 0 0.0687528 
383 1 7.28058 0.549868 3.4975 0 1 1 0.0674944 
1805 1 7.79631 0.994031 4.35144 0 1 -1 0.0258267 
1326 1 6.74438 1.24851 4.31971 0 1 -1 0.0259386 
1304 1 7.3578 1.55285 3.49394 0 1 0 0.051565 
3871 2 6.54769 7.85989 0.171525 0 0 0 0.0365528 
730 1 5.96805 9.29631 3.62495 0 0 1 0.0217196 
2177 1 8.35065 0.688966 3.47395 0 0 0 0.0307561 
1526 1 9.664 8.52504 0.0817032 0 0 1 0.0331667 
1557 1 9.33906 1.08248 3.60719 0 0 0 0.062323 
1227 1 8.84256 0.626318 4.44453 0 0 1 0.0191377 
790 1 2.36772 0.215902 1.3344 0 1 0 0.0332517 
518 1 1.49022 2.81127 4.54319 0 0 0 0.0116125 
3659 2 0.493462 2.10511 3.51824 1 1 -1 0.00741727 
814 1 1.21912 1.9773 3.85709 0 1 0 0.0119989 
2675 1 0.520136 3.05656 3.8883 1 0 1 0.0332503 
4184 2 2.79131 3.71391 3.36711 1 1 -1 0.633948 
2537 1 1.45913 2.87357 3.36169 1 0 -1 0.15514 
1396 1 2.08244 1.90886 4.53611 0 1 0 0.0453711 
932 1 2.35032 2.19172 3.52101 0 1 1 0.0297987 
3340 1 3.1023 2.47773 4.18925 1 1 0 0.00597238 
151 1 3.17431 1.48611 3.47877 0 0 0 0.0775425 
607 1 3.8726 2.32366 3.3819 0 0 0 0.0365377 
778 1 4.20521 2.47411 4.3139 0 1 0 0.00664713 
185 1 5.0905 1.50851 4.48887 0 0 1 0.0658179 
2024 1 5.35158 2.55224 4.46689 0 0 -1 0.0631199 
1736 1 4.91698 2.15559 3.61286 0 0 1 0.0356828 
1721 1 5.76725 2.84861 3.51289 0 0 0 0.0417826 
909 1 5.90368 1.96216 3.87631 0 1 0 0.00974269 
709 1 6.3348 3.08484 4.38437 0 0 0 0.00682352 
1878 1 7.15326 9.07963 3.42611 0 0 1 0.0220437 
1566 1 6.8833 3.01081 3.34434 0 0 0 0.0219005 
3854 2 7.76343 2.01497 4.13615 1 0 -2 0.0102303 
215 1 6.95272 2.31626 4.06758 0 0 0 0.02729 
2149 1 7.80872 2.88889 4.01259 0 0 0 0.0285488 
4006 2 8.21397 8.98871 4.7688 0 0 0 0.044845 
517 1 5.72439 8.46531 4.41422 0 0 0 0.00913277 
1916 1 8.34282 1.76686 3.55343 0 1 1 0.0274081 
977 1 0.279142 5.92707 3.98202 0 1 1 0.00980632 
4230 2 8.65418 6.56297 0.0760205 1 0 0 0.00551387 
1624 1 8.61943 2.87851 3.38385 0 0 -1 0.0114539 
3044 1 8.63728 1.64215 4.64829 1 0 0 0.0943769 
1678 1 9.33121 2.12856 3.75501 0 0 0 0.0297304 
3717 2 8.58378 2.43499 4.11061 0 1 1 0.0395505 
1095 1 8.88695 6.47561 4.62847 0 0 0 0.0160987 
3993 2 1.33378 3.48353 3.97275 0 0 1 0.0572372 
2733 1 0.840339 4.18529 3.91066 1 0 1 0.0560045 
198 1 2.36714 3.19837 3.92582 0 0 1 0.181133 
1728 1 2.0211 4.15567 3.7027 1 0 1 0.0988119 
194 1 2.06185 4.81968 4.60999 0 0 1 0.0256709 
487 1 4.91216 8.92069 3.38772 0 0 0 0.061215 
301 1 3.0813 4.36349 3.95898 0 1 0 0.00866362 
710 1 4.69213 8.21424 4.18339 0 0 0 0.0561171 
541 1 6.86332 9.50112 1.63329 0 0 0 0.0303988 
3155 1 3.93151 4.21692 3.21597 1 0 1 0.061049 
1404 1 4.67241 3.18994 3.69476 0 1 1 0.0382745 
2569 1 3.44681 3.2925 3.69442 1 0 0 0.0295684 
2989 1 4.18956 4.17307 4.20099 1 0 0 0.0102157 
758 1 0.0749303 4.86382 4.11551 0 0 0 0.029415 
335 1 4.98377 4.55279 3.61628 0 1 -1 0.0550516 
2553 1 5.49404 3.74145 4.06068 0 0 -1 0.0303544 
1874 1 6.45373 3.85917 3.6691 0 1 0 0.0149586 
33 1 6.04803 4.60054 4.3238 0 0 -1 0.0420309 
3976 2 4.09437 9.55672 3.16238 1 0 0 0.00588341 
516 1 0.495094 7.36157 0.0470306 0 0 0 0.0115249 
2105 1 6.92228 3.87168 4.64676 0 0 0 0.030723 
3864 2 7.37443 3.66115 3.93275 0 1 -1 0.0907884 
1532 1 7.04566 4.6325 3.86055 0 0 0 0.018295 
1143 1 8.16955 3.95137 3.78967 0 0 1 0.0267254 
205 1 3.25659 9.5807 3.43204 0 0 0 0.00121121 
1193 1 8.82483 3.42596 4.46363 0 0 1 0.0234828 
3006 1 8.64272 4.42925 4.59144 1 0 0 0.0108567 
3780 2 9.18441 3.84001 3.63844 0 0 2 0.0803902 
821 1 3.17389 8.05275 3.25081 0 0 0 0.00753517 
2528 1 8.89546 4.7024 3.6305 0 0 0 0.0253651 
1353 1 0.707429 0.605578 4.6784 0 1 0 0.0236815 
4253 2 0.697966 5.37335 3.45926 1 0 0 0.00888155 
3839 2 1.23822 5.95204 4.42196 0 1 1 0.0143786 
2727 1 1.18873 5.16046 4.12143 1 0 0 0.00962829 
40 1 1.22107 6.13397 3.5905 0 0 0 0.00428485 
1141 1 5.08487 4.46982 4.67695 0 0 0 0.0198471 
4122 2 0.464687 6.59493 3.50003 1 -1 0 0.0727484 
3902 2 2.42749 4.93906 3.8327 1 0 1 0.0398647 
521 1 2.10804 5.70896 4.06175 0 0 0 0.0110332 
3640 2 2.88552 6.47721 3.37958 0 -1 1 0.0371666 
221 1 2.90083 6.25582 4.33047 0 0 0 0.0215219 
1848 1 2.99983 5.2025 4.57966 0 1 -1 0.00542122 
1653 1 2.99923 5.50643 3.56086 0 0 0 0.00579923 
718 1 4.34949 6.10864 4.70993 0 0 0 0.0141709 
3477 2 3.63764 5.74779 4.35361 0 -1 -2 0.00455782 
1392 1 3.98745 5.09064 3.78486 0 1 1 0.00189562 
3523 2 4.5826 5.67186 3.75823 0 0 1 0.0162692 
1048 1 3.77114 6.30608 3.64881 0 0 0 0.00663112 
3141 1 5.33081 5.58182 3.31279 1 0 0 0.0146778 
1654 1 5.2828 5.41001 4.27147 0 0 0 0.0470355 
172 1 6.09698 4.70764 3.26924 0 0 0 0.0359135 
600 1 2.66295 8.86946 3.98255 0 0 0 0.0201761 
3600 2 8.13211 6.04075 4.52604 0 0 0 0.0195701 
4159 2 6.86505 6.01481 4.31866 0 0 0 0.0744172 
1445 1 6.54335 5.55684 3.70627 0 0 1 0.0481158 
4100 2 6.789 5.17577 4.42861 1 0 1 0.0198656 
2108 1 7.56599 5.61416 4.01571 0 0 0 0.00730761 
3798 2 8.20811 5.04661 4.19479 0 1 -1 0.0569749 
2711 1 2.47526 1.78915 0.0612816 1 1 1 0.0204034 
705 1 9.56609 4.03157 0.0710583 0 0 0 0.0398221 
3526 2 9.28594 8.38139 2.9616 -1 0 0 0.0140579 
2037 1 8.65388 5.71208 3.86351 0 0 -1 0.038794 
1876 1 8.13139 6.56238 3.75131 0 0 0 0.0499487 
3426 1 0.613676 8.16399 4.4813 1 0 0 0.203661 
580 1 5.56254 9.58086 0.282477 0 0 1 0.0147537 
3168 1 1.46736 7.57581 4.57959 1 0 0 0.0152387 
2119 1 0.712419 6.68083 4.59027 1 -1 1 0.0114411 
466 1 1.09677 7.14364 3.70607 0 0 1 0.0851626 
4240 2 1.25693 8.02429 3.809 1 -1 0 0.0113416 
2929 1 7.84669 8.43058 3.93848 0 0 1 0.0641556 
2556 1 2.25951 7.86737 3.80687 1 0 1 0.00837322 
434 1 2.01696 6.75605 3.7497 0 0 0 0.0298494 
666 1 3.15466 7.16619 3.85861 0 0 0 0.00270111 
1244 1 4.33187 7.84541 3.28792 0 0 0 0.0283425 
2399 1 4.3904 9.40012 1.29685 0 0 0 0.133568 
534 1 4.24117 7.21296 4.18225 0 0 0 0.012142 
3763 2 4.38743 6.92059 3.36497 1 0 1 0.020296 
1349 1 7.33779 9.36264 4.48205 0 0 -1 0.111599 
430 1 5.30095 7.36523 3.48759 0 0 0 0.0518794 
1275 1 5.25438 7.45507 4.59501 0 0 0 0.0314826 
766 1 4.88593 6.45754 3.83294 0 0 0 0.0230386 
57 1 5.91559 6.30734 3.95276 0 0 0 0.082192 
1988 1 6.16357 7.33441 4.10109 0 0 0 0.0785825 
1039 1 3.60837 8.32793 4.12538 0 0 1 0.0118679 
23 1 7.49374 6.60244 4.55832 0 0 0 0.127004 
3041 1 6.96816 6.61751 3.6874 1 0 -1 0.0209836 
1705 1 7.371 7.48254 4.1322 0 0 1 0.12056 
177 1 8.01371 7.55113 3.2798 0 0 0 0.0095277 
2685 1 9.37206 6.43388 3.51645 0 0 0 0.01408 
1453 1 8.75623 7.35917 4.1274 0 0 0 0.0206964 
2861 1 9.53907 7.52891 3.40676 0 0 0 0.00705159 
3071 1 6.74388 8.3806 4.14677 1 0 0 0.0532118 
4137 2 1.4823 9.55527 4.21057 1 1 1 0.120384 
2169 1 0.889108 8.89718 3.72798 1 0 0 0.047615 
2357 1 9.02871 5.08046 0.184759 0 0 0 0.00847683 
3304 1 2.51106 7.33643 4.75775 1 0 0 0.0137034 
2995 1 1.70976 8.61733 4.4065 1 0 0 0.00392145 
465 1 1.85397 8.72965 3.33275 0 0 0 0.0170682 
3994 2 0.135375 4.33982 4.82405 1 0 0 0.058445 
1554 1 3.16889 3.14011 0.18179 1 0 0 0.0146739 
2302 1 9.42475 5.18455 4.63105 0 0 0 0.0290441 
2736 1 0.179063 3.71116 3.16106 1 0 0 0.00540532 
4186 2 9.5647 1.19738 1.57018 0 1 1 0.0982283 
584 1 9.53593 1.44601 2.63978 0 0 0 0.0385531 
3096 1 1.36083 9.5886 3.13755 1 0 1 0.00991163 
1260 1 8.58573 9.56153 1.02947 0 0 0 0.0892344 
1784 1 8.97618 7.40176 0.129395 0 0 0 0.0204118 
1362 1 8.73924 9.17714 0.0679939 0 0 0 0.0871997 
946 1 7.56307 2.53218 0.120976 0 1 1 0.0377921 
333 1 2.73917 0.370448 4.81868 0 1 0 0.113348 
3764 2 0.150604 5.20725 2.33424 0 0 2 0.0171502 
3554 2 3.53206 4.48834 4.80932 0 1 2 0.00435703 
3889 2 7.61406 9.38728 1.04488 0 -1 1 0.0686302 
169 1 5.0328 5.80038 0.035378 0 0 0 0.022223 
201 1 2.63139 4.13391 0.0440638 0 0 2 0.0212927 
540 1 4.66307 3.40025 4.70286 0 0 0 0.0448694 
1637 1 3.4475 2.19426 0.0101273 0 0 1 0.0303693 
29 1 7.09225 5.33542 0.0332435 0 0 0 0.00300607 
818 1 0.63077 9.65079 2.30085 0 0 0 0.0456346 
704 1 7.24576 2.88325 4.82248 0 0 0 0.00944396 
3024 1 0.949457 0.848194 5.72121 1 1 0 0.0202776 
3558 2 0.193053 1.2644 6.02031 1 0 1 0.0185697 
206 1 5.93302 5.28285 9.59877 0 0 0 0.0144601 
3463 2 2.31246 9.52154 9.55555 0 0 0 0.0357096 
1813 1 7.95962 5.99249 9.57587 0 0 0 0.033639 
1276 1 1.95381 0.76097 6.18779 0 0 -1 0.0146552 
4300 2 1.58729 1.33983 5.65461 0 1 0 0.0185076 
2933 1 2.40964 1.42563 5.37916 0 1 0 0.0639105 
3188 1 1.71732 0.783345 5.01249 1 0 0 0.00224563 
1764 1 2.99175 0.580663 5.88138 0 1 -1 0.030369 
4273 2 4.24069 0.929648 5.82726 1 1 0 0.0219351 
1720 1 3.79057 0.666404 5.13129 0 0 0 0.0219612 
578 1 3.46867 1.49154 5.85312 0 0 0 0.0287129 
3999 2 4.51887 8.68535 9.51952 0 0 0 0.0229567 
582 1 4.98445 0.966514 5.41516 0 0 0 0.0159071 
471 1 4.81763 0.400922 6.36906 0 1 1 0.065559 
417 1 5.74912 0.981399 6.18054 0 1 0 0.00941497 
2048 1 5.99716 1.26358 5.07359 0 0 -1 0.00884467 
3032 1 0.1024 4.72167 9.19235 1 0 -1 0.0239543 
2201 1 7.02785 0.886021 5.37491 0 0 0 0.0453377 
880 1 6.57757 0.452936 6.29389 0 1 0 0.0283971 
1710 1 8.12215 1.12839 5.39884 0 0 1 0.018926 
2082 1 7.64747 0.245542 6.02603 0 0 0 0.0511741 
286 1 7.35976 1.17995 6.34851 0 1 0 0.0158711 
1310 1 6.52622 1.6769 5.86307 0 1 0 0.0896302 
1036 1 9.12312 1.0287 5.3643 0 0 1 0.0126848 
1291 1 8.69189 0.661671 6.19764 0 1 0 0.0115452 
664 1 6.13548 0.0797302 8.42148 0 0 0 0.138819 
2493 1 9.41696 1.41065 6.38683 0 0 0 0.00504882 
3709 2 5.66477 0.137228 6.45357 0 1 0 0.0754524 
4048 2 0.910782 2.43789 5.55922 1 1 0 0.0303337 
141 1 0.969887 1.79762 6.11534 0 0 0 0.00128901 
1527 1 0.365496 3.06106 5.73967 1 0 -1 0.029948 
154 1 1.35083 3.31604 5.49274 0 0 0 0.0519076 
3324 1 1.76126 2.34018 5.54297 1 1 0 0.056433 
2068 1 8.50677 0.148563 5.30394 0 0 0 0.00684284 
1521 1 2.32851 3.16832 5.9934 0 0 0 0.0567402 
323 1 0.053189 1.27045 5.18298 0 1 0 0.0281148 
1131 1 2.74223 2.24555 5.97331 0 0 0 0.0271019 
4054 2 6.70594 8.672 5.24361 1 0 0 0.0288605 
1069 1 4.5342 1.70524 6.07335 0 0 0 0.0147977 
248 1 4.60267 2.54476 5.31842 0 0 0 0.0334304 
83 1 3.98723 2.81646 6.14096 0 0 -1 0.0333713 
1425 1 3.49972 2.46497 5.18148 0 1 0 0.0110641 
3503 2 4.10247 3.26008 5.38776 0 0 1 0.0191153 
1801 1 5.1801 2.67387 6.29767 0 1 0 0.0144389 
3727 2 6.04609 2.38414 6.05409 0 1 -1 0.351838 
881 1 5.65309 2.92078 5.43805 0 1 1 0.0257804 
2093 1 5.42458 1.88914 5.61649 0 0 0 0.0648911 
1082 1 6.81608 2.70469 5.76757 0 0 -1 0.0317573 
1117 1 7.66765 2.09894 6.02758 0 0 0 0.0940286 
1446 1 8.18624 2.58287 4.91619 0 1 0 0.0235932 
2097 1 8.7791 1.99102 5.65952 0 0 0 0.0150413 
3688 2 9.4696 2.52377 5.88453 0 0 2 0.0691825 
4301 2 8.28663 2.75768 6.17348 0 0 0 0.0917925 
941 1 0.664783 4.08375 5.73353 0 1 0 0.0475321 
621 1 6.64996 3.8352 9.46599 0 0 0 0.0167251 
1826 1 8.79764 8.46042 8.90469 0 0 -1 0.00573101 
3861 2 2.57578 9.62217 7.70374 0 0 -1 0.0526366 
3822 2 7.68906 0.411236 4.96595 0 1 -1 0.0540094 
3747 2 2.12658 3.81804 5.41439 0 0 0 0.0493855 
389 1 1.71286 4.66558 5.68214 0 1 0 0.0459506 
719 1 2.55575 4.22651 5.95625 0 0 1 0.0384752 
1321 1 1.54955 3.87947 6.34286 0 0 0 0.0241091 
1477 1 3.30216 3.52476 5.73172 0 1 0 0.035833 
1688 1 7.69222 0.170963 8.93299 0 0 0 0.0642392 
1924 1 4.82999 3.50628 5.87433 0 0 0 0.00704717 
341 1 4.11031 4.14765 5.51688 0 1 0 0.00490623 
4042 2 3.99609 3.62609 6.41679 0 1 1 0.0227498 
4210 2 0.210657 4.38102 8.4016 1 0 0 0.0818064 
1074 1 5.19731 4.52997 5.79653 0 0 0 0.00484496 
4088 2 6.11871 4.40577 5.81286 1 0 -1 0.0215549 
1136 1 5.88899 3.94292 5.07349 0 0 0 0.013025 
1565 1 5.77381 3.70366 6.08368 0 0 -2 0.00890894 
127 1 7.7622 3.24742 5.66608 0 0 0 0.0228209 