ITEM: TIMESTEP
28800
ITEM: NUMBER OF ATOMS
4320
ITEM: BOX BOUNDS xy xz yz pp pp pp 
0 19.4259 0.11586
0 19.31 0
0 9.655 0
ITEM: ATOMS id type x y z ix iy iz msd_nonAffine 
3378 1 1.06448 0.622754 0.321572 1 1 1 0.015934 
486 1 1.48825 0.757017 1.28338 0 1 1 0.0175986 
1626 1 9.5244 5.80644 0.0513114 0 0 0 0.0999356 
332 1 0.874077 1.56422 0.872602 0 1 0 0.0350926 
964 1 2.1032 0.726343 0.33808 0 1 1 0.0449093 
2357 1 8.81542 4.92206 0.162802 0 0 0 0.0941527 
3697 2 1.76577 1.44858 0.669555 1 1 1 0.056487 
135 1 2.78841 1.23771 0.963088 0 1 1 0.0177201 
1553 1 4.40515 0.706019 0.390958 0 0 0 0.01458 
4065 2 3.6264 1.29596 0.499269 1 1 1 0.0216009 
1198 1 3.47231 0.481835 0.753631 0 0 1 0.0099252 
868 1 3.83855 1.26403 1.34937 0 1 0 0.0178816 
3422 1 4.28408 0.309685 1.58923 1 1 0 0.0407461 
1493 1 4.83065 1.30831 1.19502 0 1 1 0.00714668 
4074 2 4.97589 0.429814 0.920637 0 1 1 0.0593042 
3203 1 5.44096 0.877304 0.349799 1 0 0 0.063137 
1264 1 6.13339 1.21309 1.10591 0 1 0 0.0287651 
376 1 6.04434 0.116911 0.698633 0 1 0 0.038577 
3758 2 6.26196 0.51594 1.72529 0 0 1 0.0894829 
663 1 6.88404 0.52481 1.08844 0 0 0 0.100715 
963 1 6.64675 1.1688 0.170838 0 1 1 0.0170853 
4222 2 6.6719 0.311775 0.177768 1 0 -1 0.0103829 
3797 2 7.68399 0.151352 1.00349 0 1 -1 0.0235612 
787 1 7.6415 4.75718 4.72008 0 0 0 0.00434832 
2154 1 7.77393 0.848615 1.5846 0 0 1 0.0596515 
4078 2 8.21117 1.39699 0.332005 0 1 0 0.181279 
1783 1 9.34377 0.467628 1.09489 0 1 0 0.0518793 
1177 1 8.82979 1.44621 0.912232 0 0 1 0.0209365 
2805 1 8.41288 0.566712 0.662047 1 1 1 0.0236164 
3124 1 9.43777 3.12106 1.82272 0 0 1 0.00247302 
3569 2 0.396381 6.582 0.199018 0 0 2 0.249917 
4241 2 9.30635 9.27497 0.436322 0 0 1 0.084263 
2000 1 8.01593 9.48059 3.00179 0 0 0 0.0350726 
2926 1 1.57528 2.34531 0.645193 1 1 1 0.00488042 
2794 1 0.364904 2.48827 0.995686 1 0 0 0.00881136 
3597 2 0.781578 3.21082 1.42271 0 1 0 0.107593 
1216 1 9.05576 9.6229 3.25592 0 0 0 0.0762232 
885 1 2.5491 2.48879 0.89537 0 1 1 0.0185649 
2532 1 0.79968 0.225264 3.75442 1 0 0 0.12603 
512 1 1.70572 3.23398 1.21704 0 0 0 0.00520631 
3535 2 3.20832 3.00631 1.03274 0 1 0 0.0347732 
4233 2 3.55973 0.0260785 3.39219 1 1 1 0.0341734 
3224 1 4.409 1.78361 0.41945 1 1 0 0.0391642 
1822 1 3.53274 2.16306 0.939541 0 1 0 0.0365973 
1031 1 4.70572 2.5 1.34579 0 0 0 0.0282952 
3604 2 4.01192 2.54468 0.246102 0 0 0 0.00246165 
4308 2 4.27114 1.86137 1.84131 0 0 1 0.0817026 
640 1 4.89955 2.88797 0.333404 0 0 1 0.0298109 
1704 1 6.04407 2.81395 0.300066 0 0 1 0.0552199 
3903 2 9.14809 0.631077 0.234546 0 1 -1 0.124422 
100 1 5.67689 3.02745 1.20757 0 0 0 0.00928969 
951 1 5.49826 2.03559 0.773934 0 1 1 0.046334 
1055 1 7.46745 1.3729 0.742011 0 0 0 0.09608 
3784 2 6.92834 1.43186 1.41777 0 0 -1 0.116916 
629 1 6.66065 2.09051 0.702061 0 0 0 0.049682 
1563 1 7.4489 2.45969 1.32236 0 0 0 0.0334584 
576 1 8.1314 3.07693 0.46789 0 0 0 0.00609299 
1632 1 8.20852 1.85741 1.62608 0 0 0 0.0102278 
3737 2 8.0854 2.12734 0.825167 1 1 0 0.0696516 
3175 1 9.14286 2.42817 0.835835 1 0 1 0.0269416 
1395 1 8.43858 2.87522 1.54573 0 1 1 0.00715264 
3840 2 9.47698 5.04796 2.78585 0 0 0 0.0191876 
790 1 2.47647 0.220723 1.32349 0 1 0 0.0107644 
3383 1 0.961218 3.23649 0.522601 1 0 1 0.00839678 
547 1 1.06243 4.10949 1.39992 0 0 1 0.0221197 
2997 1 0.27863 4.08136 0.533673 1 0 0 0.0660799 
72 1 1.62109 4.12218 0.477356 0 0 0 0.000913734 
2440 1 7.21216 1.75913 4.80068 0 0 1 0.0396592 
3092 1 3.30919 9.26122 4.54868 1 0 0 0.0426086 
2007 1 1.92015 4.64213 1.34771 1 0 0 0.0105718 
1353 1 0.64857 0.620684 4.73025 0 1 0 0.0437587 
3150 1 2.66552 3.7324 1.06097 1 0 0 0.0203352 
1485 1 4.07748 3.14316 0.833182 0 1 1 0.0158117 
380 1 4.6321 3.93367 0.263052 0 1 1 0.0168463 
34 1 3.62217 4.12616 0.565295 0 0 0 0.00943018 
1056 1 4.71639 3.91237 1.2972 0 0 0 0.0106515 
965 1 3.49841 3.68516 1.55675 0 0 1 0.0559847 
3915 2 5.33181 3.78026 0.68635 0 1 1 0.0126637 
555 1 5.45724 4.64712 0.811552 0 0 0 0.00976623 
1214 1 6.19124 3.86408 0.67896 0 0 1 0.0255564 
910 1 5.67021 4.0129 1.65015 0 1 0 0.0123262 
810 1 7.07384 3.13855 0.545187 0 1 1 0.0295991 
1412 1 8.43199 0.0509979 1.61762 0 1 0 0.0083301 
981 1 7.33706 4.21721 0.253567 0 1 0 0.00234433 
3546 2 6.97449 4.09962 0.965741 0 0 1 0.0153257 
2081 1 7.68885 3.60564 1.31456 0 0 0 0.0112955 
2050 1 6.6334 3.35246 1.54099 0 0 0 0.0209019 
303 1 9.51106 2.4652 2.771 0 1 0 0.0395183 
639 1 9.08073 3.48779 0.864625 0 0 0 0.00711042 
1153 1 9.40838 4.60272 0.994644 0 0 0 0.00915903 
1946 1 8.26313 4.19498 0.725188 0 1 0 0.0461396 
3094 1 0.822505 5.12489 0.893078 1 0 0 0.104796 
2010 1 1.14142 6.11434 0.34995 1 0 0 0.067691 
550 1 4.2391 8.93384 4.81239 0 0 0 0.123468 
3268 1 2.17856 9.62122 3.68729 1 0 0 0.0142227 
2380 1 4.57177 9.50844 0.111268 0 0 0 0.0286954 
4081 2 2.03851 6.13843 0.305461 1 1 0 0.102452 
1976 1 1.71767 5.65507 1.19222 0 0 1 0.0344899 
2670 1 1.92349 5.29142 0.233159 1 0 1 0.0326083 
1042 1 2.61328 6.07201 1.06213 0 0 1 0.00599498 
1233 1 2.77779 4.83069 0.823434 0 0 1 0.0500594 
697 1 2.3551 9.56191 1.80735 0 0 0 0.0176884 
3059 1 3.73647 4.78857 1.37149 1 0 0 0.0182198 
2654 1 4.48392 4.87144 0.650177 1 0 1 0.0205479 
138 1 3.82621 5.76917 0.792947 0 0 1 0.0269606 
3671 2 3.50426 5.01889 0.345613 0 0 1 0.0152162 
3034 1 4.9795 5.75671 1.0125 1 0 0 0.00753231 
3971 2 5.84139 5.42474 0.713969 0 0 0 0.0543293 
146 1 6.49623 5.96757 0.289398 0 0 0 0.0918297 
655 1 6.23342 6.01188 1.27369 0 0 0 0.204976 
4118 2 5.88296 9.51978 1.8484 1 1 1 0.0255478 
2653 1 7.58291 4.8326 1.16328 0 0 1 0.00896928 
537 1 6.57187 4.88558 0.83278 0 0 0 0.0129224 
80 1 7.34858 5.7607 0.887612 0 0 -1 0.035604 
4073 2 8.22437 5.83106 1.39778 0 0 0 0.213935 
3679 2 7.98609 5.06407 0.440758 0 1 2 0.0343669 
4152 2 2.24839 2.54786 4.26884 1 0 0 1.13454 
3320 1 5.16485 9.3051 4.19966 1 0 0 0.0664142 
946 1 7.48171 2.3529 0.0933166 0 1 1 0.0420566 
2497 1 8.72794 5.76987 0.741589 0 0 0 0.049117 
1215 1 8.56179 4.99436 1.35421 0 0 1 0.00718715 
3694 2 9.06183 0.234547 3.67159 0 1 1 0.0359598 
568 1 8.61889 8.03796 4.70498 0 0 -1 0.0412158 
1077 1 0.674801 6.64955 1.15283 0 0 0 0.0800132 
17 1 1.51736 7.82701 1.15502 0 0 1 0.0288116 
4230 2 8.7899 6.39606 0.0912038 1 0 0 0.0460262 
2250 1 1.75844 6.73442 1.08198 1 0 0 0.0547318 
2303 1 2.219 7.73157 0.469682 1 1 0 0.0192116 
3731 2 2.33826 7.90784 1.34151 0 0 0 0.00812894 
759 1 2.61176 6.7319 0.182968 0 0 1 0.00270387 
1830 1 2.727 7.13207 1.19615 0 0 0 0.00701703 
1095 1 8.90333 6.33609 4.60367 0 0 0 0.00244759 
961 1 4.50212 6.508 0.344728 0 1 1 0.0246727 
3878 2 3.30534 6.50254 0.744104 0 0 2 0.00893371 
543 1 3.87076 7.23138 0.844038 0 0 1 0.0206747 
3626 2 5.87255 1.59454 0.124768 0 0 0 0.0845816 
985 1 5.62845 6.52009 0.547117 0 0 1 0.0258653 
270 1 4.97692 7.3041 0.846895 0 0 0 0.0837745 
1191 1 6.49734 7.8827 0.895041 0 0 0 0.0494883 
4287 2 5.95208 7.27852 0.988318 0 0 0 0.0533974 
979 1 0.110339 0.859076 0.831118 0 1 0 0.0202295 
1963 1 5.7003 7.75873 0.112156 0 0 1 0.104757 
3539 2 7.15696 6.52927 0.34765 0 0 1 0.0615624 
1101 1 7.81962 6.72221 0.935587 0 0 1 0.0580557 
1364 1 7.36699 7.5229 0.458755 0 0 0 0.0234662 
1222 1 6.73505 6.82936 1.14901 0 0 0 0.0460463 
1980 1 7.42779 7.52269 1.5177 0 0 0 0.101796 
3247 1 3.78932 0.107252 2.51088 1 1 0 0.0340253 
2416 1 8.57355 7.44493 0.696027 0 0 1 0.167135 
551 1 9.27463 6.68652 0.730915 0 0 0 0.0639514 
758 1 0.119756 4.97152 4.32064 0 0 0 0.0450061 
4236 2 0.245179 1.92972 2.46187 1 0 0 0.0163987 
646 1 0.826503 8.34081 0.508106 0 0 1 0.0177886 
3126 1 0.319951 9.16123 1.23215 1 0 1 0.00258186 
718 1 4.41816 6.15793 4.70779 0 0 0 0.0207291 
121 1 2.05876 8.82003 0.952886 0 0 0 0.0905236 
2833 1 2.86384 8.65764 0.219545 1 0 1 0.0393993 
959 1 3.19104 8.06139 1.12473 0 0 0 0.0127145 
998 1 3.13885 9.11743 1.10062 0 0 1 0.020459 
4129 2 5.24396 0.116299 4.7377 0 0 0 0.0725232 
645 1 4.30562 8.12714 1.18493 0 0 1 0.0532021 
203 1 3.83869 8.73775 0.484688 0 0 1 0.00165501 
3168 1 1.43257 7.61738 4.58508 1 0 0 0.0328451 
228 1 5.14631 9.2758 1.39191 0 0 0 0.0239231 
2263 1 5.16009 8.5917 0.511838 0 0 0 0.0981598 
1120 1 5.47796 8.07592 1.38903 0 0 0 0.0687386 
3064 1 6.17889 8.76189 0.357157 1 0 0 0.00469303 
204 1 6.10291 8.89972 1.39863 0 0 0 0.01429 
1218 1 0.142954 4.73011 1.5392 0 0 2 0.0314919 
3629 2 7.67214 8.37103 1.57414 0 0 0 1.05806 
1613 1 7.0761 8.79858 0.97592 0 0 1 0.00129 
2757 1 7.76246 9.39733 0.298791 0 0 0 0.0204721 
3412 1 1.83166 0.31207 3.31073 1 1 0 0.0274262 
2626 1 8.13431 8.44528 0.860753 0 0 0 0.171862 
1908 1 9.18753 8.32326 1.04804 0 0 0 0.00866111 
460 1 1.62309 0.0915955 4.3592 0 1 0 0.0378464 
1362 1 8.67346 8.7721 0.0358752 0 0 0 0.0962809 
2399 1 4.10006 9.47769 1.22364 0 0 0 0.0259368 
3912 2 9.54044 3.31492 4.61878 0 1 0 0.0105791 
2551 1 0.552026 0.741259 1.81278 1 0 0 0.116767 
3279 1 1.0256 0.51967 2.69583 1 1 0 0.0303478 
597 1 1.03193 1.5709 2.19839 0 0 0 0.0561443 
993 1 0.614781 1.3043 3.19637 0 1 0 0.00172994 
3522 2 0.0513 1.69478 0.659597 0 0 0 0.0503278 
4165 2 9.63054 7.44304 2.38554 0 0 1 0.0435029 
3011 1 1.97632 1.608 1.50194 1 0 0 0.0495946 
2595 1 1.99751 0.721539 2.30337 0 0 0 0.0109871 
2565 1 1.62453 1.38404 3.07244 1 0 0 0.0256479 
1262 1 2.57433 1.55813 2.56359 0 1 0 0.0584787 
950 1 3.04586 0.811937 1.99602 0 1 0 0.0329595 
1238 1 2.88131 0.478702 3.07179 0 0 0 0.0468855 
4130 2 3.97612 0.853676 2.1228 0 0 -1 0.0239164 
3430 1 4.71134 1.25887 2.29315 1 1 1 0.0109299 
3272 1 4.00066 0.893492 3.07935 1 1 0 0.00826235 
416 1 4.8364 0.300699 2.65349 0 1 1 0.0193484 
1875 1 5.43924 0.611173 1.74973 0 1 1 0.00395636 
3905 2 5.57983 1.08099 2.57266 1 1 0 0.00385336 
2405 1 6.24878 1.39098 2.1524 0 1 0 0.00891915 
27 1 5.99528 0.279927 2.52735 0 1 0 0.0377868 
2689 1 6.12866 1.05913 3.21316 1 0 0 0.0260746 
3459 2 6.90145 1.16595 2.65265 0 0 0 0.0133744 
1032 1 6.99993 0.483677 2.16813 0 0 0 0.0367651 
820 1 7.80291 1.08128 2.6576 0 1 0 0.095599 
626 1 1.22153 7.19192 0.361369 0 0 0 0.150528 
1863 1 8.73663 1.03346 1.90825 0 1 0 0.0168349 
1231 1 8.97735 0.406144 2.73022 0 0 1 0.0224487 
3639 2 8.66266 1.17812 2.88199 0 0 1 0.0234609 
1305 1 6.22723 0.0237221 3.64244 0 1 0 0.0204624 
89 1 1.27597 2.37423 1.60899 0 0 -1 0.0153326 
705 1 9.61157 4.05505 0.196436 0 0 0 0.0104457 
1234 1 0.41383 2.79286 2.12124 0 0 0 0.0309952 
2910 1 0.93174 2.32953 2.91031 1 0 1 0.0229436 
4068 2 0.718937 3.19506 2.81881 1 0 -1 0.0319579 
1647 1 1.33499 3.2829 2.14931 0 0 0 0.0203454 
2302 1 9.42418 5.35629 4.66566 0 0 0 0.0374542 
288 1 2.68949 3.04966 1.84299 0 1 0 0.0536629 
3586 2 2.1295 2.52348 1.67086 0 0 1 0.00785521 
636 1 1.87486 2.3726 2.4965 0 0 0 0.0282281 
3377 1 2.9095 2.6276 2.94497 1 1 1 0.054684 
3319 1 2.91129 2.0278 1.78375 1 1 0 0.0202569 
3952 2 4.52194 1.61121 3.05263 1 1 0 0.0296304 
1123 1 3.73011 1.66332 2.48787 0 0 0 0.00167698 
538 1 3.7787 2.67487 2.01547 0 0 0 0.0241522 
610 1 4.69729 2.35074 2.39822 0 0 0 0.00782576 
4097 2 5.11768 2.97187 3.05039 0 0 1 0.0417306 
527 1 5.4563 1.93443 1.81255 0 0 0 0.0169406 
427 1 6.47034 2.29435 1.74084 0 1 0 0.0213554 
699 1 5.47906 1.86484 2.87076 0 0 1 0.0421754 
1026 1 5.90496 2.90696 2.44541 0 0 0 0.0316708 
354 1 7.29193 1.74436 2.11938 0 1 0 0.0458419 
4141 2 7.91 2.47792 2.11866 0 2 0 0.0342732 
2060 1 6.50062 2.11064 2.82985 0 0 0 0.0284073 
753 1 7.1547 2.86546 2.2688 0 0 1 0.051649 
2422 1 7.65644 2.39579 3.01282 0 1 1 0.0117434 
1250 1 9.25297 2.06944 1.79641 0 1 0 0.0118153 
706 1 8.57532 2.00454 2.57633 0 0 0 0.0219475 
1104 1 8.50788 2.23654 0.0650368 0 0 0 0.108122 
3921 2 8.78019 2.80615 2.34575 0 1 -1 0.0498724 
2644 1 0.789757 9.09562 4.72236 1 0 1 0.0167507 
541 1 6.89234 9.65011 1.69684 0 0 0 0.00836137 
1294 1 0.438565 3.849 2.25424 0 1 0 0.0595805 
589 1 0.617393 4.76632 2.93736 0 0 0 0.0475924 
2214 1 6.61433 6.7485 4.76112 0 0 1 0.0125944 
402 1 1.18954 3.75853 3.11587 0 0 0 0.0451849 
3556 2 2.00229 3.85306 1.80008 0 1 1 0.00666668 
613 1 2.22005 3.538 2.67514 0 0 -1 0.112513 
2897 1 1.64333 4.35046 2.41477 1 1 1 0.0315888 
2002 1 2.616 4.57465 3.09095 1 0 -1 0.00985097 
256 1 2.71841 4.33722 1.98979 0 0 0 0.0125039 
1433 1 4.23016 3.27742 2.85402 0 1 0 0.0143529 
3153 1 3.25697 3.6827 2.61107 1 0 1 0.0388262 
1288 1 4.3288 4.18164 2.22546 0 1 0 0.0337113 
1181 1 5.02503 3.40393 2.15015 0 0 0 0.0341184 
3295 1 5.54908 3.75255 3.07732 1 1 0 0.174935 
2213 1 5.32022 4.59736 2.51915 0 0 1 0.0433478 
2427 1 6.44635 3.79057 2.50848 0 1 0 0.047875 
4235 2 7.88618 3.24029 3.1619 1 0 -1 0.0244946 
649 1 6.73415 4.41834 1.74414 0 0 1 0.0150793 
3508 2 7.23225 3.70282 2.07692 0 1 1 0.00825171 
1639 1 7.82885 4.41089 2.13388 0 0 0 0.0362203 
1277 1 7.40343 3.97878 2.9713 0 0 -1 0.0101128 
1536 1 8.0356 3.39251 2.35714 0 0 0 0.0116078 
3869 2 8.31497 4.20965 2.90483 0 0 -1 0.0273327 
533 1 8.67784 3.98068 1.73212 0 0 0 0.00238176 
1158 1 8.99855 3.58169 2.68895 0 0 0 0.0144492 
1035 1 8.79116 4.68682 2.43312 0 0 1 0.00600794 
1347 1 1.17414 6.20081 1.93918 0 1 -1 0.121457 
23 1 7.63019 6.79069 4.60154 0 0 0 0.0291428 
3095 1 0.978331 5.15142 2.04846 1 0 0 0.0414402 
829 1 0.532112 6.02691 2.80951 0 0 0 0.0562718 
3608 2 1.37036 5.86848 2.84805 0 0 0 0.229597 
119 1 1.64175 5.12419 3.21477 0 0 1 0.0574839 
118 1 1.94787 5.35015 2.19637 0 0 0 0.0624273 
99 1 2.20165 5.93148 3.17669 0 0 0 0.0202202 
633 1 2.30027 6.39839 2.11015 0 0 0 0.0177944 
3532 2 2.63841 5.39347 2.6921 0 1 0 0.0477764 
86 1 2.92132 5.42728 1.8374 0 0 0 0.0409006 
1004 1 3.44509 4.84091 2.52942 0 0 1 0.02251 
1994 1 4.04784 5.60755 2.05862 0 0 0 0.0288594 
64 1 4.55285 5.09327 2.8861 0 0 -1 0.0236568 
875 1 3.21815 6.1136 2.65276 0 1 1 0.0108859 
157 1 4.49316 6.15485 2.90683 0 0 1 0.0137612 
3520 2 3.82243 5.5932 2.92494 0 0 0 0.0159918 
1139 1 4.86132 4.96139 1.68483 0 0 0 0.0078439 
3037 1 5.2313 5.84046 2.10804 1 0 0 0.0333156 
525 1 5.88938 5.14466 1.61248 0 0 0 0.00700686 
4053 2 6.17157 4.7406 2.31999 0 0 -1 0.063461 
827 1 6.13712 5.58844 2.5542 0 0 0 0.030274 
3575 2 6.45142 6.28259 3.04623 0 1 0 0.0201643 
1083 1 7.90962 4.98499 3.10575 0 0 0 0.00437601 
662 1 6.90883 5.41257 1.83562 0 0 1 0.0841609 
635 1 6.91852 4.84803 2.73324 0 0 0 0.10236 
579 1 7.22372 5.90677 2.8331 0 0 0 0.0828965 
1628 1 8.04126 5.4753 2.13476 0 0 0 0.0896423 
3475 2 7.99703 5.86033 3.24378 0 0 -1 0.0739999 
724 1 4.14364 9.33213 3.87903 0 0 0 0.0306434 
1040 1 9.03884 5.90725 1.75963 0 0 1 0.0249817 
1813 1 7.91052 5.83753 0.0291234 0 0 1 0.0392051 
1156 1 8.79974 5.64836 2.86931 0 0 0 0.00685045 
2468 1 0.457227 7.26418 2.89962 1 0 0 0.26572 
3347 1 0.959044 7.27614 1.97886 1 0 0 0.00551057 
2790 1 1.43227 6.72691 2.88419 1 0 -1 0.0325642 
273 1 1.4683 7.78728 2.86082 0 0 -1 0.0958703 
3072 1 0.571465 8.28189 3.26347 1 0 0 0.299406 
3920 2 0.6862 7.96949 2.47868 1 0 0 0.392612 
564 1 2.43393 7.12183 2.89772 0 0 0 0.0272476 
770 1 2.02631 7.34821 1.96174 0 0 1 0.0227293 
4203 2 2.33451 8.02287 2.86376 0 0 0 0.0117829 
559 1 2.89682 7.93702 2.2183 0 0 0 0.0138174 
3827 2 2.92542 7.07845 2.21409 0 1 1 0.0194028 
3256 1 4.4485 6.49483 1.53987 1 0 0 0.0249135 
3257 1 3.39697 6.47607 1.63005 1 0 0 0.00919055 
3741 2 4.73234 7.434 1.7163 0 -1 2 0.136504 
2990 1 3.78658 7.38063 1.84846 1 0 0 0.0270643 
3855 2 3.99127 6.47842 2.27187 0 0 -1 0.0228618 
895 1 4.67043 7.05223 2.50437 0 0 1 0.0114427 
1530 1 3.58437 7.06425 2.89042 0 0 1 0.00458336 
3638 2 3.71196 8.06214 2.57362 0 0 0 0.00505691 
126 1 5.51684 7.66492 2.37756 0 0 0 0.058806 
832 1 5.47238 6.84845 1.69346 0 0 0 0.0632503 
556 1 5.5672 6.56461 2.80984 0 0 0 0.0212345 
224 1 6.41817 6.50853 2.19203 0 0 0 0.0431783 
1602 1 6.41376 7.52809 1.91148 0 0 0 0.0625141 
1410 1 6.30028 7.25068 3.03439 0 0 0 0.0175486 
1068 1 7.53478 6.36469 1.84824 0 0 0 0.136643 
1160 1 7.26835 7.08803 2.58897 0 0 1 0.0516861 
3953 2 8.05756 7.3018 2.30592 0 0 -2 0.0231703 
1438 1 8.20705 6.52718 2.67195 0 0 0 0.0316128 
2840 1 9.51442 7.29595 1.597 0 0 0 0.0487394 
1539 1 8.52725 6.84187 1.64029 0 0 0 0.0512594 
1652 1 8.82967 7.69435 2.60445 0 0 1 0.0110766 
1388 1 9.24131 6.64064 2.50747 0 0 1 0.0331608 
1504 1 3.1448 1.50271 4.57452 0 1 0 0.0472991 
3547 2 8.73461 7.01849 3.08661 -1 1 0 0.0178894 
2566 1 1.34344 9.23584 1.62466 1 0 0 0.0297259 
18 1 0.84252 8.35319 1.68831 0 0 0 0.0131579 
4174 2 0.395638 9.3468 3.12126 1 0 0 0.0231711 
742 1 0.997545 8.91898 2.53125 0 0 1 0.0535856 
1260 1 8.47281 9.42414 1.07098 0 0 0 0.12186 
3028 1 0.0982946 6.57966 2.03772 1 0 0 0.175056 
136 1 1.88739 8.36739 2.0869 0 0 0 0.0100594 
3964 2 1.86671 9.16547 2.43104 0 0 0 0.00729255 
4284 2 2.6223 8.66367 1.68052 0 0 2 0.045099 
2635 1 2.78968 8.92234 2.5283 1 0 0 0.0487695 
665 1 5.75148 8.35604 3.28223 0 0 1 0.0344756 
3973 2 4.60227 8.70031 1.69562 0 0 -1 0.108169 
144 1 3.69855 8.65031 1.91022 0 0 0 0.0283116 
644 1 4.51826 8.10594 2.308 0 0 1 0.0529213 
3269 1 3.88099 8.81726 2.94436 1 0 0 0.00395412 
774 1 4.50836 9.46161 2.24575 0 0 0 0.0560016 
3815 2 5.07605 8.04643 2.97772 0 1 0 0.100509 
307 1 5.36053 8.75841 2.2512 0 0 0 0.0641195 
3583 2 6.21499 8.31522 2.42376 -1 0 1 0.102009 
1016 1 6.34466 9.20336 2.47577 0 0 0 0.0232251 
1722 1 7.86866 0.0423737 2.51069 0 0 1 0.0369756 
78 1 0.214577 1.72919 1.56174 0 0 0 0.0358359 
1752 1 7.76082 8.10173 2.44306 0 0 0 0.0765092 
1832 1 6.88208 8.48881 1.91503 0 0 0 0.0472712 
1442 1 7.83833 9.09889 1.96482 0 0 0 0.0219686 
4279 2 7.18006 9.12675 2.48054 1 0 0 0.0815364 
1529 1 6.89406 8.16708 3.03057 0 0 0 0.0504007 
2447 1 8.82225 8.27458 3.6405 0 0 0 0.0058892 
1134 1 8.50644 7.92099 1.66473 0 0 1 0.107787 
4223 2 8.65789 8.78445 1.65419 1 0 1 0.0716147 
1142 1 8.60485 8.74335 2.58517 0 0 1 0.0621647 
2717 1 0.158542 5.73864 0.228002 1 0 0 0.184801 
751 1 9.53108 8.31141 2.05328 0 0 1 0.0278915 
4186 2 9.5199 1.21281 1.57386 0 1 1 0.0863746 
107 1 1.31092 1.10613 4.05294 0 0 0 0.108709 
412 1 0.337654 1.51741 4.21116 0 1 1 0.0161217 
1645 1 3.52442 3.51815 4.79454 0 0 0 0.0528061 
3410 1 2.3946 0.8994 3.94003 1 1 0 0.0465565 
140 1 9.56443 4.07961 4.11098 0 0 1 0.0302485 
4194 2 4.35156 0.329075 3.68104 1 1 1 0.0602881 
401 1 3.50043 0.642622 3.98521 0 1 0 0.0544967 
627 1 4.57916 0.647682 4.45524 0 0 0 0.00731426 
355 1 4.20959 1.52192 3.88147 0 1 0 0.0420333 
1422 1 6.34511 9.30671 4.60572 0 0 1 0.0300155 
630 1 2.36909 9.50328 4.76054 0 0 0 0.0115296 
904 1 5.01827 1.07309 3.41967 0 1 2 0.0280175 
3947 2 2.99557 8.04315 4.21585 1 0 1 0.486745 
4038 2 5.54248 0.376083 3.2858 0 1 0 0.00434269 
1252 1 7.55709 0.478287 0.0886181 0 1 1 0.00839994 
3143 1 5.57111 0.764794 4.19401 1 0 0 0.0548773 
383 1 7.10707 0.481521 3.29196 0 1 1 0.0149374 
1805 1 7.83286 0.950601 4.38599 0 1 -1 0.0391102 
1326 1 6.67407 1.13018 4.16949 0 1 -1 0.00401948 
1304 1 7.19418 1.54365 3.40537 0 1 0 0.0153128 
3226 1 8.40674 9.15294 3.96916 1 0 0 0.163712 
730 1 5.96301 9.31285 3.58833 0 0 1 0.0247045 
2177 1 8.29522 0.600662 3.50261 0 0 0 0.0448848 
2165 1 9.45908 9.264 1.49132 0 0 1 0.0269131 
1557 1 9.20229 1.06404 3.54943 0 0 0 0.0156607 
1227 1 8.792 0.634733 4.3792 0 0 1 0.00988941 
1192 1 6.33276 5.64013 4.7793 0 0 1 0.0452624 
518 1 1.47314 2.81074 4.66056 0 0 0 0.0153107 
3659 2 0.30356 2.15561 3.65577 1 1 -1 0.0559855 
814 1 1.19318 2.08297 3.91145 0 1 0 0.0269166 
2675 1 0.469445 3.01537 3.87016 1 0 1 0.0445862 
4184 2 2.72257 3.76051 3.32114 1 1 -1 0.723743 
2537 1 1.71224 2.93381 3.52107 1 0 -1 0.0234985 
1396 1 2.0548 1.75724 4.52975 0 1 0 0.0382473 
932 1 2.27916 2.08154 3.58113 0 1 1 0.0437501 
3340 1 3.10464 2.41284 4.19581 1 1 0 0.0190361 
151 1 3.23323 1.48605 3.44603 0 0 0 0.057535 
607 1 3.94638 2.33601 3.21373 0 0 0 0.0186095 
778 1 4.12324 2.71862 4.26267 0 1 0 0.0600955 
185 1 5.05718 1.74369 4.60454 0 0 1 0.0350571 
2024 1 5.31098 2.76325 4.43575 0 0 -1 0.00789179 
1736 1 4.92552 2.24445 3.61821 0 0 1 0.0187855 
1721 1 5.83752 2.831 3.49398 0 0 0 0.0482829 
909 1 5.88857 1.82059 3.95625 0 1 0 0.0486983 
709 1 6.28327 3.11265 4.43555 0 0 0 0.00968926 
1878 1 6.96518 9.27835 3.28227 0 0 1 0.0641179 
1566 1 6.92302 2.95557 3.28927 0 0 0 0.0404882 
3854 2 7.7221 2.02734 4.12652 1 0 -2 0.0052201 
215 1 6.82057 2.28123 4.02037 0 0 0 0.0306761 
2149 1 7.73535 2.93887 3.94637 0 0 0 0.0139629 
1839 1 7.66407 8.32962 4.64148 0 0 -1 0.114885 
517 1 5.71043 8.44895 4.48589 0 0 0 0.00156383 
1916 1 8.27852 1.73336 3.57875 0 1 1 0.0257117 
3376 1 1.73614 6.62642 4.78102 1 1 -1 0.0563852 
3304 1 2.58071 7.46409 4.70844 1 0 0 0.0154119 
1624 1 8.61397 2.80706 3.31914 0 0 -1 0.0241741 
3044 1 8.60777 1.67807 4.6034 1 0 0 0.0574106 
1678 1 9.20919 2.12479 3.75391 0 0 0 0.0115561 
3717 2 8.48359 2.50549 4.15705 0 1 1 0.0202105 
187 1 2.06778 3.1984 0.201532 0 0 0 0.00490661 
3993 2 1.27154 3.63026 4.02262 0 0 1 0.117248 
2733 1 0.823182 4.31878 3.96442 1 0 1 0.106875 
198 1 2.58587 3.30328 4.10649 0 0 1 0.096368 
1728 1 1.96958 4.12095 3.71667 1 0 1 0.0841792 
194 1 2.08624 4.80973 4.5859 0 0 1 0.0185986 
487 1 4.93344 8.93192 3.19051 0 0 0 0.0618181 
301 1 3.08581 4.29915 3.94739 0 1 0 0.0165729 
710 1 4.78656 8.17638 4.12141 0 0 0 0.074508 
1141 1 5.01184 4.58299 4.81307 0 0 0 0.0193892 
3155 1 3.91456 4.21652 3.24744 1 0 1 0.0773213 
1404 1 4.71301 3.38307 3.7511 0 1 1 0.023992 
2569 1 3.51827 3.35641 3.64564 1 0 0 0.00844911 
2989 1 4.16103 4.09099 4.24292 1 0 0 0.0242714 
1717 1 9.63972 1.4803 4.41844 0 0 1 0.0342263 
335 1 4.97116 4.46457 3.69408 0 1 -1 0.114192 
2553 1 5.50354 3.81303 4.25418 0 0 -1 0.0733162 
1874 1 6.46144 3.81308 3.64865 0 1 0 0.0272684 
33 1 6.13435 4.64939 4.42592 0 0 -1 0.018644 
1694 1 6.48921 7.04384 0.0702716 0 0 1 0.0502882 
12 1 0.166957 7.70708 0.961895 0 0 0 0.0192629 
3612 2 6.26355 0.413924 4.66879 0 0 0 0.014864 
3864 2 7.31203 3.76385 3.94476 0 1 -1 0.0939932 
1532 1 7.19155 4.58352 3.78825 0 0 0 0.00930485 
1143 1 8.15754 3.90555 3.72422 0 0 1 0.0139862 
1140 1 3.25217 7.61515 0.163154 0 0 0 0.0336739 
1193 1 8.77409 3.36401 4.32174 0 0 1 0.00753162 
3006 1 8.67673 4.45377 4.49498 1 0 0 0.0117841 
3780 2 9.04566 3.66171 3.51061 0 0 2 0.0513002 
821 1 3.11486 8.01327 3.24229 0 0 0 0.00913142 
2528 1 8.872 4.68668 3.48819 0 0 0 0.00274586 
2711 1 2.35651 1.78055 0.0983487 1 1 1 0.0110712 
4253 2 0.783383 5.44228 3.51243 1 0 0 0.0235328 
3839 2 1.19065 5.98965 4.64299 0 1 1 0.0440438 
2727 1 1.19322 5.22714 4.18232 1 0 0 0.0266302 
40 1 1.29868 6.08827 3.71195 0 0 0 0.029258 
2105 1 6.87516 3.94451 4.67613 0 0 0 0.00905809 
4122 2 0.518226 6.67923 3.48036 1 -1 0 0.117764 
3902 2 2.44675 5.03187 3.8226 1 0 1 0.0279787 
521 1 2.12869 5.74503 4.19284 0 0 0 0.0053528 
3640 2 2.99219 6.48346 3.44427 0 -1 1 0.0459853 
221 1 2.98404 6.30478 4.43241 0 0 0 0.00179817 
1848 1 3.02218 5.26963 4.55289 0 1 -1 0.0150255 
1653 1 3.13717 5.48962 3.51947 0 0 0 0.0032731 
768 1 1.74155 3.82796 4.69765 0 1 0 0.020376 
3477 2 3.76579 5.73801 4.44827 0 -1 -2 0.0140891 
1392 1 4.02411 5.09754 3.84001 0 1 1 0.00798726 
3523 2 4.5728 5.62489 3.63149 0 0 1 0.0694886 
1048 1 3.89315 6.32942 3.82325 0 0 0 0.0450931 
3141 1 5.42567 5.54101 3.24858 1 0 0 0.0282552 
1654 1 5.18573 5.41578 4.26026 0 0 0 0.0968936 
172 1 6.02039 4.70553 3.28458 0 0 0 0.0519969 
600 1 2.75561 8.76634 3.89653 0 0 0 0.00244574 
3600 2 8.0246 6.03836 4.50915 0 0 0 0.0158059 
4159 2 6.968 6.08647 4.22619 0 0 0 0.0409652 
1445 1 6.49141 5.57712 3.67123 0 0 1 0.0583382 
4100 2 6.89603 5.10877 4.45216 1 0 1 0.0096029 
2108 1 7.56219 5.60537 3.90997 0 0 0 0.0151308 
3798 2 8.08739 4.68363 3.94515 0 1 -1 0.0548564 
3764 2 0.107194 5.2825 2.29622 0 0 2 0.0550538 
3309 1 0.0765042 5.76029 1.35611 1 0 0 0.0281759 
3526 2 9.42105 8.48973 2.8893 -1 0 0 0.0322389 
2037 1 8.58434 5.554 4.01344 0 0 -1 0.0131678 
1876 1 8.1916 6.51312 3.75488 0 0 0 0.0276959 
3426 1 0.595645 8.10749 4.4392 1 0 0 0.145808 
3554 2 3.49228 4.42416 4.67266 0 1 2 0.0158474 
571 1 1.30549 9.51092 0.523376 0 0 1 0.0191378 
2119 1 0.705265 6.78138 4.55832 1 -1 1 0.0447268 
466 1 1.06562 7.26154 3.72149 0 0 1 0.0841946 
4240 2 1.28023 8.13239 3.74759 1 -1 0 0.0377797 
2929 1 7.82258 8.54848 3.4308 0 0 1 0.0811072 
2556 1 2.17837 7.87152 3.84616 1 0 1 0.0335748 
434 1 2.21213 6.81703 3.87693 0 0 0 0.110375 
666 1 3.27974 7.19921 3.98131 0 0 0 0.0292003 
1244 1 4.25122 7.80383 3.33363 0 0 0 0.0039147 
3107 1 2.90741 5.69269 0.146563 1 0 1 0.0192878 
534 1 4.40228 7.21894 4.20567 0 0 0 0.0503812 
3763 2 4.31391 6.89896 3.34792 1 0 1 0.00895359 
1349 1 7.4206 9.28298 4.21103 0 0 -1 0.20153 
430 1 5.30341 7.4279 3.48041 0 0 0 0.0270707 
1275 1 5.36913 7.36137 4.52054 0 0 0 0.0836014 
766 1 5.00891 6.47172 3.85675 0 0 0 0.0298887 
57 1 6.10622 6.49854 3.86758 0 0 0 0.00639258 
1988 1 6.2306 7.54572 4.02236 0 0 0 0.050807 
1039 1 3.75492 8.29459 4.14031 0 0 1 0.0280727 
584 1 9.38291 1.38547 2.53917 0 0 0 0.0496144 
3041 1 7.0582 6.63567 3.59598 1 0 -1 0.00310135 
1705 1 7.2761 7.65214 3.90703 0 0 1 0.0213534 
177 1 8.09525 7.48136 3.33312 0 0 0 0.0107814 
2685 1 9.16128 6.36435 3.55546 0 0 0 0.0617215 
1453 1 8.85487 7.28891 4.07894 0 0 0 0.034006 
2861 1 9.51565 7.37814 3.28296 0 0 0 0.0692441 
3071 1 6.67819 8.54233 4.00323 1 0 0 0.00619437 
4137 2 1.57477 9.51738 4.35845 1 1 1 0.229397 
2169 1 1.05461 9.0934 3.70893 1 0 0 0.197581 
2736 1 0.111555 3.77172 3.20776 1 0 0 0.0214312 
938 1 0.70851 3.50549 4.80209 0 1 0 0.0155673 
2995 1 1.76797 8.67467 4.35182 1 0 0 0.0036273 
465 1 1.93076 8.76329 3.21263 0 0 0 0.0441991 
333 1 2.71232 0.497408 4.76936 0 1 0 0.0577714 
1554 1 3.17998 3.05256 0.169719 1 0 0 0.0236944 
580 1 5.61146 9.58531 0.255473 0 0 1 0.0221109 
205 1 3.26147 9.6228 3.30728 0 0 0 0.0120428 
738 1 9.70183 9.28087 2.54505 0 0 0 0.0141797 
648 1 7.93475 3.63618 4.78338 0 0 0 0.0272079 
977 1 0.228251 6.03795 4.06667 0 1 1 0.0191204 
3889 2 7.52807 9.50194 1.19316 0 -1 1 0.0387972 
165 1 0.624983 2.35693 0.00823222 0 0 1 0.00950279 
43 1 4.66355 7.83633 0.034274 0 0 0 0.0560652 
1667 1 9.22959 2.45371 4.80705 0 0 0 0.0369968 
3708 2 0.236068 3.44772 0.00781323 0 1 2 0.197942 
516 1 0.298995 7.46175 0.021179 0 0 0 0.0306429 
201 1 2.65807 4.09084 0.0242281 0 0 2 0.0255867 
781 1 5.57779 6.31533 4.80552 0 0 0 0.0269973 
900 1 6.79033 7.82705 4.81967 0 1 0 0.0415134 
3024 1 0.913619 0.911254 5.75223 1 1 0 0.0405535 
3558 2 0.161115 1.238 6.0584 1 0 1 0.0282593 
16 1 9.61545 0.356676 6.20356 0 0 0 0.0135847 
1869 1 5.76814 0.205062 5.44957 0 1 0 0.00299327 
222 1 2.71279 8.48407 4.94907 0 0 0 0.0345489 
1276 1 1.90111 0.765522 6.12913 0 0 -1 0.0288241 
4300 2 1.60392 1.451 5.66839 0 1 0 0.0336261 
2933 1 2.49278 1.39176 5.50366 0 1 0 0.0108386 
3188 1 1.69224 0.86043 4.99835 1 0 0 0.0156092 
1764 1 3.04148 0.474117 5.86603 0 1 -1 0.00690025 
4273 2 4.30514 0.76482 5.65673 1 1 0 0.0804269 
1720 1 3.69512 0.68215 5.07069 0 0 0 0.0617428 
578 1 3.5362 1.55902 5.76348 0 0 0 0.0179179 
3999 2 4.42359 8.67056 9.49516 0 0 0 0.013705 
582 1 5.02771 0.913619 5.27036 0 0 0 0.0157301 
471 1 4.90283 0.366145 6.24809 0 1 1 0.0166496 
417 1 5.74993 1.04575 6.10473 0 1 0 0.000387914 
2048 1 6.03317 1.24082 4.93965 0 0 -1 0.025247 
3871 2 6.56217 7.87146 9.64865 0 0 -1 0.00549955 
2201 1 6.97509 0.822092 5.25687 0 0 0 0.0102351 
880 1 6.5598 0.394754 6.1826 0 1 0 0.0039931 
1710 1 8.05945 1.2149 5.38106 0 0 1 0.0128377 
1821 1 9.51572 9.31271 9.23423 0 0 -1 0.125688 
286 1 7.41265 1.10817 6.34289 0 1 0 0.0021941 
1310 1 6.62094 1.64011 5.82154 0 1 0 0.0388699 
1036 1 9.12719 1.01925 5.42974 0 0 1 0.0291271 
1291 1 8.5673 0.716295 6.25506 0 1 0 0.0312117 
1118 1 7.24228 0.233786 6.90959 0 0 0 0.037992 
2493 1 9.34023 1.48675 6.39095 0 0 0 0.00240039 
1637 1 3.34929 2.04707 9.55681 0 0 0 0.00639802 
4048 2 0.983865 2.54257 5.47949 1 1 0 0.0233223 
141 1 0.915203 1.853 6.0475 0 0 0 0.010381 
1527 1 0.36645 3.0282 5.75974 1 0 -1 0.0249746 
154 1 1.36653 3.30759 5.60629 0 0 0 0.0409767 
3324 1 1.82884 2.28373 5.5171 1 1 0 0.0241146 
2188 1 9.36774 4.06705 5.17868 0 0 0 0.105185 
1521 1 2.23394 3.22104 6.07618 0 0 0 0.052329 
3488 2 9.52763 7.43648 8.78068 -1 0 -1 0.248966 
1131 1 2.78981 2.30337 5.95864 0 0 0 0.0170451 
4054 2 6.88302 8.74034 4.87149 1 0 0 0.0948191 
1069 1 4.56864 1.58047 5.92193 0 0 0 0.0313874 
248 1 4.65061 2.57678 5.19927 0 0 0 0.0198955 
83 1 4.05725 2.58214 6.06642 0 0 -1 0.0556072 
1425 1 3.50672 2.48273 5.23456 0 1 0 0.0126449 
3503 2 4.03976 3.22323 5.41075 0 0 1 0.0109352 
1801 1 5.18241 2.591 6.36194 0 1 0 0.0310827 
3727 2 6.11604 2.10289 6.28511 0 1 -1 0.0571022 
881 1 5.63814 2.99943 5.47497 0 1 1 0.0317921 
2093 1 5.47224 1.88871 5.5929 0 0 0 0.048819 
1082 1 6.57164 2.70502 5.85734 0 0 -1 0.0332381 
1117 1 7.53179 2.21752 5.77601 0 0 0 0.0368282 
1954 1 9.41056 0.100766 5.11652 0 0 0 0.00512711 
2097 1 8.70742 1.978 5.64844 0 0 0 0.0145866 
3688 2 9.34861 2.65353 5.77232 0 0 2 0.011037 
4301 2 8.30814 2.67422 5.92765 0 0 0 0.0429308 
941 1 0.725148 4.03251 5.73023 0 1 0 0.0240569 
621 1 6.6074 3.57697 9.39131 0 0 0 0.0394242 
1826 1 8.98447 8.13092 8.78279 0 0 -1 0.1859 
2731 1 0.0854709 4.50247 7.28647 1 0 0 0.0296756 
3090 1 2.44558 9.55043 6.88496 1 0 0 0.0192746 
3747 2 2.04231 3.83873 5.4552 0 0 0 0.0601122 
389 1 1.77756 4.66602 5.73137 0 1 0 0.0529385 
719 1 2.62817 4.23434 6.05939 0 0 1 0.0148834 
1321 1 1.58897 3.82655 6.53292 0 0 0 0.0215358 
1477 1 3.25808 3.42288 5.76133 0 1 0 0.00685722 
1784 1 9.04424 7.27695 9.40416 0 0 -1 0.100594 
1924 1 4.73911 3.47817 5.93957 0 0 0 0.00710929 
341 1 4.07214 4.13808 5.50407 0 1 0 0.00126753 
4042 2 4.00301 3.68037 6.3981 0 1 1 0.0297201 
2052 1 2.60597 0.0707326 9.26636 1 0 0 0.0344398 
1074 1 5.24324 4.66097 5.84085 0 0 0 0.0323253 
4088 2 6.136 4.55657 5.91739 1 0 -1 0.0464685 
1136 1 5.90168 4.0172 5.2051 0 0 0 0.0481626 
1565 1 5.77977 3.79914 6.24744 0 0 -2 0.0166596 
127 1 7.64739 3.3152 5.74437 0 0 0 0.00719592 
4117 2 6.51918 3.30043 5.24358 0 0 0 0.0099789 
1819 1 6.74754 3.86005 5.83654 0 0 0 0.00505404 
3970 2 7.37726 4.25665 5.43983 0 1 -1 0.0203813 
96 1 6.79668 4.87334 6.36955 0 0 0 0.0199171 
1261 1 7.62804 4.1473 6.54594 0 0 0 0.0332443 
1292 1 8.71583 3.26019 5.3717 0 0 0 0.0513135 
914 1 2.19399 0.190901 8.27472 0 1 0 0.0409923 