ITEM: TIMESTEP
67200
ITEM: NUMBER OF ATOMS
4320
ITEM: BOX BOUNDS xy xz yz pp pp pp 
0 19.5803 0.27034
0 19.31 0
0 9.655 0
ITEM: ATOMS id type x y z ix iy iz msd_nonAffine 
3378 1 1.16298 0.647454 0.402934 1 1 1 0.0238915 
486 1 1.42232 0.833976 1.3565 0 1 1 0.0644315 
2399 1 4.17556 9.65235 1.07614 0 0 0 0.0421828 
332 1 0.869412 1.57415 0.916779 0 1 0 0.043557 
964 1 2.24114 0.583733 0.51564 0 1 1 0.0205542 
187 1 2.02906 3.22106 0.175217 0 0 0 0.0101716 
3697 2 1.70384 1.35576 0.688955 1 1 1 0.077459 
135 1 2.79103 1.44833 0.869094 0 1 1 0.0410716 
1553 1 4.22723 0.734269 0.560582 0 0 0 0.0648462 
4065 2 3.59307 1.57275 0.573511 1 1 1 0.0767563 
1198 1 3.32808 0.518252 0.968176 0 0 1 0.113291 
868 1 3.75948 1.36595 1.44303 0 1 0 0.00865401 
3422 1 4.25632 0.359116 1.60363 1 1 0 0.0681758 
1493 1 4.74239 1.41627 1.32527 0 1 1 0.0708881 
4074 2 4.90292 0.547757 1.06396 0 1 1 0.123946 
3203 1 5.21803 1.01398 0.36741 1 0 0 0.0826076 
1264 1 5.89475 1.39547 1.22314 0 1 0 0.0938819 
376 1 5.9278 0.232484 0.828498 0 1 0 0.00930884 
3758 2 6.08043 0.637057 1.65599 0 0 1 0.122901 
663 1 6.77349 0.838806 1.06151 0 0 0 0.0708572 
963 1 6.38103 1.1901 0.202485 0 1 1 0.13355 
4222 2 6.58006 0.314414 0.176554 1 0 -1 0.0199467 
626 1 1.5087 6.93004 0.145846 0 0 0 0.0405486 
790 1 2.38018 0.248134 1.45511 0 1 0 0.0389173 
2154 1 7.66208 0.865221 1.5475 0 0 1 0.0942838 
3912 2 9.59085 3.34147 4.60865 0 1 0 0.00677362 
1783 1 9.29635 0.443271 1.03995 0 1 0 0.053294 
1177 1 8.66555 1.37545 0.967773 0 0 1 0.0131323 
2805 1 8.28206 0.373782 0.818166 1 1 1 0.0772308 
3124 1 9.46846 3.23271 1.97946 0 0 1 0.0455629 
977 1 0.0893126 6.01137 4.00204 0 1 1 0.0443769 
4233 2 3.54888 0.0564521 3.46488 1 1 1 0.0392363 
3991 2 9.61465 6.01772 4.24025 0 1 1 0.0152623 
2926 1 1.47903 2.40006 0.631148 1 1 1 0.0146379 
2794 1 0.283494 2.50077 1.02746 1 0 0 0.0324593 
3597 2 0.712172 3.16526 1.43571 0 1 0 0.130504 
1722 1 7.76327 0.077465 2.68358 0 0 1 0.120645 
885 1 2.45181 2.57501 0.919021 0 1 1 0.0628161 
431 1 0.400403 2.50051 4.65574 0 1 0 0.0455276 
512 1 1.66054 3.31387 1.21452 0 0 0 0.0321944 
3535 2 3.08908 3.01509 1.32382 0 1 0 0.0620069 
29 1 7.04522 5.23363 0.118994 0 0 0 0.0492993 
3224 1 4.42242 1.78236 0.428109 1 1 0 0.039829 
1822 1 3.49564 2.32025 0.975806 0 1 0 0.074537 
1031 1 4.4938 2.53069 1.21859 0 0 0 0.0946947 
3604 2 3.95397 2.5761 0.29482 0 0 0 0.0130469 
4308 2 4.23685 2.00478 1.82586 0 0 1 0.0986192 
640 1 4.81486 2.85864 0.319007 0 0 1 0.0750702 
1704 1 5.93024 2.89503 0.288895 0 0 1 0.0343053 
519 1 6.67019 9.52345 0.416701 0 0 0 0.106847 
100 1 5.3205 3.23146 1.19025 0 0 0 0.156301 
951 1 5.3449 2.15065 0.862579 0 1 1 0.09319 
1055 1 7.54002 1.55927 0.790955 0 0 0 0.0211468 
3784 2 6.78646 1.67226 1.2815 0 0 -1 0.0091113 
629 1 6.49292 2.1853 0.6667 0 0 0 0.0446354 
1563 1 7.22322 2.44838 1.29911 0 0 0 0.0990608 
576 1 8.05747 3.0616 0.592151 0 0 0 0.0410149 
1632 1 8.03361 1.81451 1.68986 0 0 0 0.0319941 
3737 2 8.08882 2.24006 0.905001 1 1 0 0.0636638 
3175 1 9.01433 2.37654 0.71402 1 0 1 0.0286082 
1395 1 8.45523 2.83116 1.57636 0 1 1 0.0165365 
3493 2 6.45895 4.59342 0.137089 0 0 -1 0.0179899 
748 1 9.68948 7.91526 4.5095 0 0 0 0.0285455 
3383 1 0.766232 3.32416 0.459674 1 0 1 0.0609347 
547 1 0.961547 4.00038 1.32322 0 0 1 0.0513865 
2997 1 0.219471 4.32116 0.446855 1 0 0 0.0536811 
72 1 1.42032 4.19935 0.406065 0 0 0 0.0533146 
4165 2 9.54834 7.51464 2.37129 0 0 1 0.0578423 
979 1 0.0511878 0.894545 0.971819 0 1 0 0.049915 
2007 1 1.81041 4.59157 1.4089 1 0 0 0.0655666 
3563 2 6.50534 9.42026 2.21542 0 0 0 1.11595 
3150 1 2.62239 3.65821 1.06803 1 0 0 0.0544822 
1485 1 3.89146 3.22793 0.819331 0 1 1 0.0179332 
380 1 4.49111 3.94766 0.181705 0 1 1 0.00499886 
34 1 3.50915 4.15903 0.615843 0 0 0 0.0161721 
1056 1 4.45663 4.02023 1.28382 0 0 0 0.0959247 
965 1 3.53029 3.7232 1.69174 0 0 1 0.0597696 
3915 2 5.27825 3.7912 0.536894 0 1 1 0.0733362 
555 1 5.33051 4.64661 0.708384 0 0 0 0.0177375 
1214 1 6.07243 3.8913 0.819332 0 0 1 0.0858739 
910 1 5.46694 4.01579 1.82442 0 1 0 0.13871 
810 1 6.93575 3.21395 0.656565 0 1 1 0.0361364 
4236 2 0.133827 1.97735 2.57482 1 0 0 0.0371595 
981 1 7.22594 4.18285 0.305657 0 1 0 0.0219817 
3546 2 6.84611 3.95023 1.12703 0 0 1 0.0717827 
2081 1 7.51647 3.47316 1.50712 0 0 0 0.111902 
2050 1 6.36913 3.37962 1.63212 0 0 0 0.0679284 
303 1 9.44737 2.53068 2.80433 0 1 0 0.034132 
639 1 9.02819 3.45005 0.854195 0 0 0 0.0011174 
1153 1 9.33318 4.45248 1.1667 0 0 0 0.0631976 
1946 1 8.15872 4.14062 0.824604 0 1 0 0.149563 
3094 1 0.911485 4.9967 0.901224 1 0 0 0.0457536 
2010 1 1.19716 5.9125 0.443238 1 0 0 0.0223638 
1362 1 8.66207 8.85992 0.117908 0 0 0 0.03766 
738 1 9.53837 9.31344 2.64773 0 0 0 0.0815254 
3107 1 2.93438 5.72154 0.0373435 1 0 1 0.0342557 
4081 2 2.14559 6.02033 0.339952 1 1 0 0.130981 
1976 1 1.86294 5.59614 1.15429 0 0 1 0.0587412 
2670 1 2.02753 5.16648 0.19714 1 0 1 0.0621004 
1042 1 2.73648 6.08015 0.967697 0 0 1 0.0287674 
1233 1 2.79854 4.89223 0.872318 0 0 1 0.0293793 
2105 1 6.80925 3.90783 4.70088 0 0 0 0.0205383 
3059 1 3.68182 4.76749 1.50264 1 0 0 0.0341651 
2654 1 4.32489 4.95085 0.584231 1 0 1 0.0075192 
138 1 3.74691 5.7924 1.02269 0 0 1 0.015931 
3671 2 3.48861 5.03436 0.411545 0 0 1 0.0207882 
3034 1 4.855 5.8788 1.13848 1 0 0 0.0455798 
3971 2 5.68231 5.48656 0.918027 0 0 0 0.0393263 
146 1 6.43388 5.95166 0.562481 0 0 0 0.0151047 
655 1 5.84606 6.21815 1.48589 0 0 0 0.014138 
23 1 7.73188 6.71491 4.66593 0 0 0 0.065723 
2653 1 7.39986 4.72012 1.24661 0 0 1 0.0745542 
537 1 6.3628 4.97597 0.903272 0 0 0 0.0432228 
80 1 7.43379 5.68012 1.12923 0 0 -1 0.145843 
4073 2 7.99731 6.04269 1.74193 0 0 0 0.196998 
3679 2 7.84783 5.06582 0.617461 0 1 2 0.117361 
3526 2 9.30778 8.43614 2.94933 -1 0 0 0.0419919 
1353 1 0.638541 0.538732 4.71466 0 1 0 0.0249577 
571 1 1.32781 9.4811 0.642398 0 0 1 0.000269308 
2497 1 8.52943 5.94268 1.00176 0 0 0 0.036379 
1215 1 8.32921 5.02454 1.42596 0 0 1 0.098487 
2302 1 9.39427 5.37131 4.74981 0 0 0 0.0824836 
3028 1 0.163194 6.66873 1.86567 1 0 0 0.0675904 
1077 1 0.769802 6.77216 0.964523 0 0 0 0.00513648 
17 1 1.46463 7.72764 1.00559 0 0 1 0.0500855 
1626 1 9.59915 5.89257 0.0845535 0 0 0 0.0555069 
2250 1 1.84456 6.67703 1.17515 1 0 0 0.0187813 
2303 1 2.2224 7.89113 0.305881 1 1 0 0.0273811 
3731 2 2.29935 7.94156 1.19666 0 0 0 0.0459503 
759 1 2.48457 6.78671 0.186461 0 0 1 0.0225787 
1830 1 2.78908 7.17076 1.1628 0 0 0 0.00270338 
1252 1 7.43395 0.573723 0.19039 0 1 1 0.0292783 
961 1 4.32525 6.54475 0.466905 0 1 1 0.0183713 
3878 2 3.34526 6.57754 0.692621 0 0 2 0.00153458 
543 1 3.85958 7.37286 0.836875 0 0 1 0.0040741 
3412 1 1.86136 0.466642 3.36526 1 1 0 0.0685878 
985 1 5.54705 6.49609 0.570195 0 0 1 0.0196553 
270 1 4.98652 7.37247 0.956613 0 0 0 0.0243038 
1191 1 6.40951 7.89143 1.13362 0 0 0 0.0239293 
4287 2 5.86323 7.25372 1.15119 0 0 0 0.0243715 
1104 1 8.24524 2.01186 0.118306 0 0 0 0.0255505 
1963 1 5.63614 7.74517 0.291943 0 0 1 0.0186384 
3539 2 7.04017 6.50924 0.51202 0 0 1 0.0334006 
1101 1 7.70467 6.67614 1.00864 0 0 1 0.170529 
1364 1 7.23809 7.42482 0.497741 0 0 0 0.0546378 
1222 1 6.61683 6.85798 1.15832 0 0 0 0.0433947 
1980 1 7.30047 7.54989 1.60952 0 0 0 0.154857 
205 1 3.26261 9.45916 3.23584 0 0 0 0.0523552 
2416 1 8.44421 7.33169 0.789494 0 0 1 0.208499 
551 1 9.21747 6.67405 0.663342 0 0 0 0.106528 
460 1 1.58092 0.0844142 4.38857 0 1 0 0.042752 
1412 1 8.20253 0.030699 1.76693 0 1 0 0.120092 
646 1 0.853256 8.54466 0.502126 0 0 1 0.0726883 
3126 1 0.252193 9.07454 1.2486 1 0 1 0.0458068 
1422 1 6.18525 9.1731 4.78385 0 0 1 0.0460121 
121 1 2.0534 8.74849 1.01888 0 0 0 0.031856 
2833 1 2.7875 8.755 0.32387 1 0 1 0.012776 
959 1 3.17183 8.12515 1.1571 0 0 0 0.00283513 
998 1 3.2528 9.12122 1.18284 0 0 1 0.0127021 
2736 1 0.0564347 3.71172 3.10783 1 0 0 0.0433813 
645 1 4.31951 8.40664 1.15945 0 0 1 0.0468902 
203 1 3.81306 8.7916 0.26622 0 0 1 0.0801515 
3840 2 9.32394 5.15604 2.88635 0 0 0 0.0234628 
228 1 4.98651 9.23546 1.40164 0 0 0 0.0981574 
2263 1 4.947 8.55107 0.34875 0 0 0 0.106139 
1120 1 5.39051 8.2389 1.24613 0 0 0 0.116965 
3064 1 6.13248 8.65188 0.544859 1 0 0 0.036431 
204 1 6.03303 9.22406 1.43438 0 0 0 0.0898247 
3976 2 4.12571 9.59049 3.26083 1 0 0 0.00921245 
3629 2 7.75082 8.37475 1.8413 0 0 0 1.67723 
1613 1 7.08021 8.81371 1.20683 0 0 1 0.0588934 
2757 1 7.75927 9.21897 0.507157 0 0 0 0.0612929 
3376 1 1.8447 6.52312 4.8132 1 1 -1 0.0154262 
2626 1 7.91193 8.26377 0.882855 0 0 0 0.414855 
1908 1 9.03779 8.26275 0.927013 0 0 0 0.0920669 
3226 1 8.28236 9.32052 4.08905 1 0 0 0.0157058 
1216 1 9.07263 9.07474 3.54013 0 0 0 0.195461 
2532 1 0.663352 0.0474268 3.74839 1 0 0 0.0328415 
3903 2 9.00517 0.386769 0.19209 0 1 -1 0.0380153 
2551 1 0.583392 0.516141 1.94602 1 0 0 0.0546371 
3279 1 1.00947 0.576211 2.84385 1 1 0 0.0322284 
597 1 1.09698 1.52016 2.25627 0 0 0 0.0297773 
993 1 0.519294 1.46237 3.21864 0 1 0 0.0256818 
3304 1 2.6183 7.47934 4.6952 1 0 0 0.0234475 
3168 1 1.53883 7.5723 4.61248 1 0 0 0.0177329 
3011 1 2.00354 1.61893 1.54552 1 0 0 0.0349858 
2595 1 1.91036 0.713837 2.34567 0 0 0 0.0349921 
2565 1 1.60581 1.46417 3.14575 1 0 0 0.0403627 
1262 1 2.50323 1.52314 2.60848 0 1 0 0.0648813 
950 1 3.06395 0.736794 2.13456 0 1 0 0.0305785 
1238 1 2.895 0.578271 3.15251 0 0 0 0.0860027 
4130 2 3.92061 0.890922 2.23644 0 0 -1 0.0411723 
3430 1 4.66919 1.39592 2.40146 1 1 1 0.0425663 
3272 1 3.95757 0.970025 3.10389 1 1 0 0.0324736 
416 1 4.82955 0.457816 2.77599 0 1 1 0.0404403 
1875 1 5.24662 0.69876 1.83499 0 1 1 0.0727098 
3905 2 5.46058 1.11216 2.72872 1 1 0 0.036309 
2405 1 6.06198 1.30855 2.23617 0 1 0 0.0697253 
27 1 5.91612 0.36471 2.62373 0 1 0 0.0632138 
2689 1 6.10021 1.03919 3.40318 1 0 0 0.081168 
3459 2 6.83333 1.15891 2.78872 0 0 0 0.0640156 
1032 1 6.86154 0.51933 2.1369 0 0 0 0.0687056 
820 1 7.77949 1.13375 2.60995 0 1 0 0.0663551 
1694 1 6.34243 6.98551 0.203372 0 0 1 0.0182624 
1863 1 8.72051 0.953509 1.95867 0 1 0 0.045908 
1231 1 8.88032 0.313365 2.77341 0 0 1 0.06039 
3639 2 8.6067 1.19289 2.84939 0 0 1 0.0216835 
2451 1 9.06566 8.79122 4.52768 0 0 1 0.0132737 
89 1 1.12558 2.38865 1.62751 0 0 -1 0.0615034 
2494 1 9.62002 4.23009 2.18752 0 0 0 0.0946559 
78 1 0.198101 1.73384 1.70054 0 0 0 0.0445278 
2910 1 0.930251 2.34763 2.75001 1 0 1 0.0711114 
4068 2 0.615307 3.17977 2.68417 1 0 -1 0.0094788 
1647 1 1.34859 3.21884 2.20413 0 0 0 0.00737488 
184 1 9.55377 3.29225 3.71498 -1 0 0 0.0533642 
288 1 2.56023 3.17387 1.98909 0 1 0 0.000297641 
3586 2 1.98642 2.62816 1.5909 0 0 1 0.0841876 
636 1 1.97782 2.3908 2.49268 0 0 0 0.0130939 
3377 1 3.06195 2.59879 2.74075 1 1 1 0.0320298 
3319 1 2.92565 2.11677 1.80416 1 1 0 0.0107299 
3952 2 4.31577 1.74927 3.16741 1 1 0 0.0171885 
1123 1 3.70221 1.69837 2.44454 0 0 0 0.00253119 
538 1 3.77377 2.80095 1.88147 0 0 0 0.0018796 
610 1 4.50377 2.40215 2.60154 0 0 0 0.0675672 
4097 2 4.97612 2.89094 3.072 0 0 1 0.0779489 
527 1 5.16043 2.15757 1.87819 0 0 0 0.0895183 
427 1 6.21957 2.26964 1.68108 0 1 0 0.0546213 
699 1 5.44845 1.92722 2.87883 0 0 1 0.0525139 
1026 1 5.71764 2.9079 2.39851 0 0 0 0.0393028 
354 1 7.03474 1.62865 2.0838 0 1 0 0.130375 
4141 2 7.67228 2.56645 2.0606 0 2 0 0.0118192 
2060 1 6.53167 2.01273 2.9767 0 0 0 0.0656143 
753 1 6.91149 2.80531 2.3395 0 0 1 0.0601672 
2422 1 7.58842 2.32645 2.91382 0 1 1 0.0508585 
1250 1 9.22253 2.14754 1.74605 0 1 0 0.00481974 
706 1 8.56436 1.98751 2.56225 0 0 0 0.0272203 
1221 1 9.60199 5.20062 2.04606 0 0 1 0.0260187 
3921 2 8.73626 2.84777 2.46069 0 1 -1 0.0502546 
140 1 9.48427 4.21911 4.21343 0 0 1 0.0257256 
1349 1 7.151 9.4781 4.42552 0 0 -1 0.034492 
1294 1 0.499411 3.87988 2.20335 0 1 0 0.0508473 
589 1 0.65968 4.65255 3.01002 0 0 0 0.00854202 
718 1 4.38039 6.13351 4.63108 0 0 0 0.000809 
402 1 1.12659 3.74353 3.07894 0 0 0 0.0598593 
3556 2 2.0586 3.85313 1.85616 0 1 1 0.020066 
613 1 2.292 3.66544 2.98631 0 0 -1 0.0105707 
2897 1 1.59334 4.32646 2.39412 1 1 1 0.0377584 
2002 1 2.46503 4.67494 2.90038 1 0 -1 0.0435649 
256 1 2.74219 4.40794 1.86032 0 0 0 0.0234002 
1433 1 4.00842 3.33028 2.88548 0 1 0 0.0804323 
3153 1 3.2229 3.97083 2.63511 1 0 1 0.0295341 
1288 1 4.22343 4.26962 2.32531 0 1 0 0.0729255 
1181 1 4.64611 3.40316 2.11956 0 0 0 0.0848794 
3295 1 5.20371 3.79561 2.95294 1 1 0 0.00766689 
2213 1 5.30608 4.78161 2.59359 0 0 1 0.0682578 
2427 1 6.2158 3.85422 2.60937 0 1 0 0.0116826 
4235 2 7.63417 3.14878 3.23482 1 0 -1 0.0389648 
649 1 6.48813 4.46153 1.76253 0 0 1 0.103107 
3508 2 7.00427 3.7506 2.14361 0 1 1 0.068688 
1639 1 7.79061 4.33294 2.20219 0 0 0 0.0900322 
1277 1 7.23779 3.85734 3.03445 0 0 -1 0.0806739 
1536 1 8.00221 3.29388 2.46159 0 0 0 0.0451355 
3869 2 8.21956 4.04699 2.96413 0 0 -1 0.0292236 
533 1 8.59099 3.89423 1.80057 0 0 0 0.0292811 
1158 1 9.02251 3.58276 2.85423 0 0 0 0.0228527 
1035 1 8.68815 4.73401 2.50616 0 0 1 0.0233303 
1347 1 1.16742 6.15886 1.88708 0 1 -1 0.0697147 
185 1 5.10416 1.68558 4.69556 0 0 1 0.0478472 
3095 1 0.931483 5.14542 2.00905 1 0 0 0.0785888 
829 1 0.616216 6.08416 2.69137 0 0 0 0.0760439 
3608 2 1.46338 5.81994 2.60113 0 0 0 0.0610863 
119 1 1.55172 5.15103 3.24453 0 0 1 0.0383639 
118 1 1.98416 5.30368 2.15342 0 0 0 0.0567529 
99 1 2.19185 6.06314 3.05602 0 0 0 0.0253736 
633 1 2.25869 6.31567 2.05389 0 0 0 0.0100729 
3532 2 2.69671 5.46718 2.66294 0 1 0 0.0505972 
86 1 2.93111 5.50628 1.78387 0 0 0 0.0571128 
1004 1 3.47832 5.01008 2.61519 0 0 1 0.0348929 
1994 1 4.08283 5.7368 2.08652 0 0 0 0.0202179 
64 1 4.41504 5.18561 2.87397 0 0 -1 0.0361233 
875 1 3.2433 6.25719 2.67853 0 1 1 0.0210438 
157 1 4.5079 6.1676 3.00484 0 0 1 0.00244307 
3520 2 3.70954 5.68103 3.04796 0 0 0 0.0425694 
1139 1 4.6949 4.93714 1.65072 0 0 0 0.0601486 
3037 1 5.13914 5.98373 2.20026 1 0 0 0.00421607 
525 1 5.68505 5.07441 1.6976 0 0 0 0.0958804 
4053 2 6.10763 4.75911 2.41352 0 0 -1 0.075903 
827 1 6.07423 5.64414 2.63721 0 0 0 0.0262336 
3575 2 6.38672 6.37899 3.21856 0 1 0 0.0169081 
1083 1 7.82764 4.84564 3.099 0 0 0 0.0364927 
662 1 6.63405 5.56462 1.77917 0 0 1 0.115179 
635 1 6.88882 4.90957 2.5926 0 0 0 0.100904 
579 1 7.04805 5.95474 2.97571 0 0 0 0.132357 
1628 1 7.73921 5.48109 2.2582 0 0 0 0.15064 
3475 2 7.81716 5.71862 3.15295 0 0 -1 0.0134279 
724 1 4.05594 9.21724 4.02327 0 0 0 0.0742673 
1040 1 8.76417 5.78199 2.04022 0 0 1 0.124784 
412 1 0.211102 1.46237 4.20734 0 1 1 0.0548905 
1156 1 8.64093 5.65586 3.08086 0 0 0 0.0625002 
2468 1 0.450636 7.18666 2.80244 1 0 0 0.155873 
3347 1 1.0005 7.30485 1.93655 1 0 0 0.00856275 
2790 1 1.48542 6.77915 2.69562 1 0 -1 0.0221837 
273 1 1.58638 7.83173 2.86427 0 0 -1 0.0981745 
3072 1 0.601986 8.13908 3.29665 1 0 0 0.222601 
3920 2 0.748033 7.94335 2.49554 1 0 0 0.397501 
564 1 2.51561 7.16448 2.97319 0 0 0 0.0331425 
770 1 2.04375 7.37176 1.94432 0 0 1 0.0319596 
4203 2 2.41861 8.08628 2.716 0 0 0 0.016784 
559 1 2.93192 7.85588 2.09839 0 0 0 0.00480815 
3827 2 2.78717 6.94282 2.17603 0 1 1 0.0449275 
3256 1 4.52447 6.74759 1.57887 1 0 0 0.034571 
3257 1 3.52502 6.61996 1.65632 1 0 0 0.0149296 
3741 2 4.83291 7.65436 1.87548 0 -1 2 0.0185051 
2990 1 3.9828 7.61195 1.78388 1 0 0 0.0521992 
3855 2 4.11952 6.59719 2.30531 0 0 -1 0.00391371 
895 1 4.73512 7.12093 2.56941 0 0 1 0.00675992 
1530 1 3.55915 7.2197 2.66608 0 0 1 0.0514111 
3638 2 3.89257 8.02125 2.55906 0 0 0 0.00918718 
126 1 5.47489 7.8849 2.56522 0 0 0 0.0122625 
832 1 5.46923 7.11784 1.85818 0 0 0 0.0188764 
556 1 5.5401 6.49062 2.97965 0 0 0 0.0188778 
224 1 6.36644 6.57255 2.30276 0 0 0 0.0454827 
1602 1 6.40317 7.58499 2.1309 0 0 0 0.0276106 
1410 1 6.20176 7.28755 3.16739 0 0 0 0.0191668 
1068 1 7.27354 6.46766 1.91821 0 0 0 0.151036 
1160 1 7.1649 7.09982 2.75211 0 0 1 0.0603193 
3953 2 7.82789 7.19221 2.19593 0 0 -2 0.15964 
1438 1 7.97293 6.39843 2.66572 0 0 0 0.13238 
2840 1 9.35387 7.3059 1.51581 0 0 0 0.0804705 
1539 1 8.49993 6.73464 1.76475 0 0 0 0.106149 
1652 1 8.70333 7.67336 2.66903 0 0 1 0.0343394 
1388 1 9.10108 6.72607 2.59557 0 0 1 0.0615505 
2357 1 8.80194 5.06858 0.410894 0 0 0 0.100934 
3547 2 8.55336 6.99518 3.15561 -1 1 0 0.0454723 
2566 1 1.34018 9.31695 1.67639 1 0 0 0.0202869 
18 1 0.877576 8.31097 1.74465 0 0 0 0.00199257 
4174 2 0.481861 9.38335 2.9816 1 0 0 0.0322287 
742 1 1.14273 8.73493 2.62053 0 0 1 0.000801001 
938 1 0.528964 3.50302 4.80787 0 1 0 0.0647724 
1503 1 7.08006 8.46127 0.123723 0 0 0 0.0391163 
136 1 1.89657 8.37627 2.01933 0 0 0 0.0321019 
3964 2 1.93271 9.24538 2.42473 0 0 0 0.0105749 
4284 2 2.72781 8.61143 1.66245 0 0 2 0.0437974 
2635 1 2.86466 8.84525 2.52029 1 0 0 0.0477456 
665 1 5.81422 8.26263 3.47511 0 0 1 0.0349668 
3973 2 4.21678 9.275 1.86026 0 0 -1 0.216336 
144 1 3.67172 8.60003 2.01872 0 0 0 0.00776882 
644 1 4.70515 8.49003 2.12282 0 0 1 0.112558 
3269 1 4.16952 8.76114 3.00387 1 0 0 0.0583124 
2644 1 0.932239 9.05322 4.78026 1 0 1 0.0269988 
3815 2 4.89889 8.22294 3.09753 0 1 0 0.0398599 
307 1 5.95659 8.82884 2.5663 0 0 0 0.215746 
3583 2 6.04954 8.41717 1.77433 -1 0 1 0.253356 
1016 1 7.63181 9.19966 2.1536 0 0 0 1.34056 
705 1 9.55733 4.03409 0.188519 0 0 0 0.0150105 
3947 2 3.46921 7.46217 4.55056 1 0 1 0.0302824 
1752 1 7.71209 7.99498 2.55382 0 0 0 0.0917798 
1832 1 6.90175 8.48479 2.16363 0 0 0 0.0917025 
1442 1 8.38925 8.87467 1.57647 0 0 0 0.401935 
4279 2 7.43723 8.71515 2.86583 1 0 0 0.164392 
1529 1 6.8961 8.03342 3.14345 0 0 0 0.108319 
2447 1 8.67211 8.1331 3.62494 0 0 0 0.08656 
1134 1 8.37405 7.78603 1.71409 0 0 1 0.15865 
630 1 2.39067 9.42717 4.70643 0 0 0 0.0402532 
1142 1 8.38202 8.7127 2.82865 0 0 1 0.214523 
3797 2 7.43818 0.21164 1.05897 0 1 -1 0.0836954 
751 1 9.2321 8.31701 2.01564 0 0 1 0.0867401 
4186 2 9.4124 1.27963 1.57357 0 1 1 0.0688088 
107 1 1.17555 1.05675 4.00306 0 0 0 0.0955167 
1504 1 3.147 1.56926 4.70736 0 1 0 0.0434316 
1141 1 5.05936 4.65261 4.70856 0 0 0 0.0104213 
3410 1 2.36569 1.14032 3.96136 1 1 0 0.0779001 
2004 1 0.188424 0.256018 0.101609 1 0 1 0.0392324 
4194 2 4.49771 0.521163 3.6087 1 1 1 0.0372204 
401 1 3.4909 0.735117 4.02593 0 1 0 0.0337031 
627 1 4.51293 0.706385 4.4667 0 0 0 0.024815 
355 1 4.10873 1.62636 4.10052 0 1 0 0.0939515 
1234 1 0.150327 2.77286 2.04104 0 0 0 0.101518 
2995 1 1.81805 8.56599 4.38165 1 0 0 0.0038386 
904 1 4.90975 1.21528 3.55011 0 1 2 0.111386 
3206 1 9.64965 5.55299 1.05579 0 0 0 0.0610994 
4038 2 5.37499 0.447935 3.47332 0 1 0 0.0728297 
3694 2 9.27794 0.241445 3.65399 0 1 1 0.0406472 
3143 1 5.5886 0.765181 4.25979 1 0 0 0.0736723 
383 1 6.95025 0.460143 3.33441 0 1 1 0.0829447 
1805 1 7.73625 0.988356 4.44942 0 1 -1 0.0746576 
1326 1 6.62624 1.09027 4.40674 0 1 -1 0.0643908 
1304 1 7.22378 1.42175 3.58627 0 1 0 0.0898461 
3569 2 0.373696 6.30119 0.431192 0 0 2 0.0265532 
730 1 5.99244 9.29381 3.72471 0 0 1 0.0524116 
2177 1 8.16968 0.693388 3.53159 0 0 0 0.0554154 
2165 1 9.37989 9.20343 1.51569 0 0 1 0.0982107 
1557 1 9.11831 1.15307 3.55369 0 0 0 0.0120978 
1227 1 8.8429 0.707145 4.47783 0 0 1 0.0146343 
2861 1 9.47589 7.4631 3.3703 0 0 0 0.0309771 
518 1 1.43265 2.88037 4.58606 0 0 0 0.0402964 
3659 2 0.328849 2.19447 3.77542 1 1 -1 0.0876943 
814 1 1.25449 2.12086 3.93123 0 1 0 0.0327061 
2675 1 0.62958 3.08169 3.79585 1 0 1 0.0346773 
4184 2 2.66046 2.9827 3.387 1 1 -1 0.0411342 
2537 1 1.70678 2.86928 3.40064 1 0 -1 0.0338842 
1396 1 2.20497 2.07996 4.55319 0 1 0 0.10144 
932 1 2.40256 2.17741 3.53563 0 1 1 0.0204406 
3340 1 3.19452 2.52747 4.20579 1 1 0 0.0057817 
151 1 3.25707 1.67874 3.50521 0 0 0 0.0339032 
607 1 3.87728 2.51526 3.49659 0 0 0 0.0655834 
778 1 4.20566 2.70103 4.48042 0 1 0 0.0450732 
3247 1 3.69132 0.0370926 2.57926 1 1 0 0.0534075 
2024 1 5.29811 2.80347 4.49757 0 0 -1 0.0256448 
1736 1 4.84123 2.26945 3.66314 0 0 1 0.0437089 
1721 1 5.83544 2.89595 3.46644 0 0 0 0.0214507 
909 1 5.81494 1.94023 3.86132 0 1 0 0.0340608 
709 1 6.26144 3.15941 4.37789 0 0 0 0.00605452 
1878 1 6.8129 9.29231 3.00357 0 0 1 0.359648 
1566 1 6.83884 2.90829 3.41487 0 0 0 0.0738015 
3854 2 7.63039 1.98903 4.30948 1 0 -2 0.0769235 
215 1 6.8246 2.17463 4.15191 0 0 0 0.0966705 
2149 1 7.61361 2.8166 4.04789 0 0 0 0.104618 
1140 1 3.20116 7.74722 0.0473464 0 0 0 0.0496738 
517 1 5.63476 8.34546 4.51248 0 0 0 0.0250468 
1916 1 8.22493 1.79953 3.50375 0 1 1 0.0152229 
1645 1 3.4293 3.45779 4.73187 0 0 0 0.0513985 
580 1 5.48195 9.46899 0.540232 0 0 1 0.0582602 
1624 1 8.437 2.8466 3.40862 0 0 -1 0.0613519 
2119 1 0.778607 6.75071 4.57982 1 -1 1 0.0289847 
1678 1 9.19308 2.22003 3.73709 0 0 0 0.0090961 
3717 2 8.43678 2.43258 4.13322 0 1 1 0.046611 
2711 1 2.23463 1.92258 0.0569631 1 1 1 0.0666973 
3993 2 1.45008 3.5673 3.95303 0 0 1 0.0352866 
2733 1 0.819419 4.21456 3.98751 1 0 1 0.0482973 
198 1 2.39135 3.31769 4.12971 0 0 1 0.0576104 
1728 1 1.90115 4.22032 3.73962 1 0 1 0.0412046 
194 1 1.89902 4.84507 4.51698 0 0 1 0.100091 
487 1 5.14339 9.10912 3.24601 0 0 0 0.0439904 
301 1 3.05404 4.46499 3.78382 0 1 0 0.0421189 
710 1 4.70176 8.35972 3.95675 0 0 0 0.0158019 
946 1 7.34606 2.45595 0.0575514 0 1 1 0.0359028 
3155 1 4.04711 4.22886 3.32307 1 0 1 0.0368557 
1404 1 4.54074 3.32559 3.77697 0 1 1 0.00431139 
2569 1 3.39051 3.48135 3.72017 1 0 0 0.0326428 
2989 1 4.01874 4.24116 4.29413 1 0 0 0.0770063 
3764 2 0.128569 5.23079 2.32819 0 0 2 0.0460029 
335 1 4.94284 4.58793 3.65036 0 1 -1 0.0667985 
2553 1 5.41876 3.82332 4.14443 0 0 -1 0.0214013 
1874 1 6.30067 3.88196 3.64645 0 1 0 0.0304057 
33 1 6.15786 4.6955 4.30932 0 0 -1 0.012438 
201 1 2.58427 4.24133 0.127555 0 0 2 0.0357403 
648 1 7.78607 3.62137 4.77604 0 0 0 0.0359144 
1944 1 3.48342 9.61689 2.19902 0 0 0 0.0134443 
3864 2 7.22231 3.56651 4.00102 0 1 -1 0.00979852 
1532 1 7.11348 4.52987 3.86427 0 0 0 0.0122751 
1143 1 7.95529 3.87059 3.76942 0 0 1 0.0396232 
2380 1 4.48993 9.44727 0.058747 0 0 0 0.0774024 
1193 1 8.64413 3.27382 4.37955 0 0 1 0.0643315 
1554 1 3.04034 3.17872 0.220719 1 0 0 0.0191025 
3780 2 8.81567 3.73128 3.6562 0 0 2 0.0392352 
821 1 3.19437 8.11408 3.18362 0 0 0 0.0016364 
2528 1 8.7257 4.57853 3.51937 0 0 0 0.0538602 
768 1 1.49731 3.89661 4.73703 0 1 0 0.058279 
4253 2 0.658319 5.43241 3.31049 1 0 0 0.0503158 
3839 2 1.31094 5.98111 4.40978 0 1 1 0.0208038 
2727 1 0.995571 5.24656 4.07395 1 0 0 0.117039 
40 1 1.29298 6.11169 3.53217 0 0 0 0.00663156 
1667 1 9.25951 2.50936 4.73241 0 0 0 0.0153348 
4122 2 0.590839 6.58553 3.48481 1 -1 0 0.0836046 
3902 2 2.23287 5.04107 3.68773 1 0 1 0.0255358 
521 1 2.10583 5.79118 4.10441 0 0 0 0.024079 
3640 2 2.82651 6.45253 3.48051 0 -1 1 0.00448891 
221 1 2.96804 6.37179 4.51 0 0 0 0.0067261 
1848 1 3.00744 5.21425 4.60019 0 1 -1 0.0167757 
1653 1 2.90354 5.50092 3.53686 0 0 0 0.0496767 
3320 1 5.14983 9.40967 4.28012 1 0 0 0.0386837 
3477 2 3.659 5.7331 4.44646 0 -1 -2 0.00285979 
1392 1 4.00259 5.24666 3.81415 0 1 1 0.0208406 
3523 2 4.70062 5.70136 3.87702 0 0 1 0.000422186 
1048 1 3.62889 6.26614 3.72486 0 0 0 0.0250863 
3141 1 5.30204 5.53705 3.31158 1 0 0 0.0407652 
1654 1 5.36795 5.60251 4.38584 0 0 0 0.03929 
172 1 6.09257 4.79094 3.3053 0 0 0 0.0195669 
600 1 2.87225 8.88509 3.999 0 0 0 0.0354366 
3600 2 7.95177 5.87933 4.51266 0 0 0 0.0899458 
4159 2 6.92545 6.1664 4.4362 0 0 0 0.0672582 
1445 1 6.43809 5.59148 3.8711 0 0 1 0.184856 
4100 2 6.944 5.16532 4.48335 1 0 1 0.00320544 
2108 1 7.45439 5.5893 3.9077 0 0 0 0.0705101 
3798 2 7.91881 4.77583 3.97099 0 1 -1 0.0892034 
3626 2 5.72826 1.79018 0.214152 0 0 0 0.128072 
465 1 1.90045 8.76103 3.24259 0 0 0 0.021758 
584 1 9.49941 1.36587 2.5858 0 0 0 0.0579352 
2037 1 8.45958 5.39723 4.0844 0 0 -1 0.114199 
1876 1 8.05201 6.39167 3.68656 0 0 0 0.104482 
3426 1 0.698683 8.02829 4.32518 1 0 0 0.0814388 
4118 2 5.40888 9.31737 2.19874 1 1 1 0.391174 
697 1 2.38644 9.46236 1.70131 0 0 0 0.036443 
3044 1 8.55095 1.73278 4.5839 1 0 0 0.0273723 
466 1 1.10737 7.26832 3.64711 0 0 1 0.0665745 
4240 2 1.42429 8.14837 3.69526 1 -1 0 0.0454901 
2929 1 7.63675 8.59222 3.74298 0 0 1 0.0663464 
2556 1 2.2788 7.84286 3.71747 1 0 1 0.0393814 
434 1 2.0126 6.84166 3.85258 0 0 0 0.00977871 
666 1 3.15643 7.26059 3.79237 0 0 0 0.0180216 
1244 1 4.21231 7.72659 3.31998 0 0 0 0.00974306 
3006 1 8.49101 4.39026 4.50663 1 0 0 0.0786256 
534 1 4.19598 7.1629 4.12821 0 0 0 0.022216 
3763 2 4.07035 6.88484 3.19428 1 0 1 0.123825 
4241 2 9.21703 9.1616 0.680758 0 0 1 0.0846852 
430 1 5.20747 7.42085 3.45872 0 0 0 0.0343163 
1275 1 5.11511 7.42227 4.47369 0 0 0 0.0163144 
766 1 5.05511 6.52959 3.91148 0 0 0 0.0173646 
57 1 6.1029 6.55044 4.01636 0 0 0 0.019691 
1988 1 6.24072 7.53552 4.13587 0 0 0 0.0137128 
1039 1 3.6479 8.15297 4.081 0 0 1 0.0566129 
4078 2 8.14371 1.11652 0.365974 0 1 0 0.0533406 
3041 1 7.11412 6.74566 3.71918 1 0 -1 0.0417448 
1705 1 7.33965 7.68181 4.2934 0 0 1 0.116997 
177 1 7.87891 7.44392 3.4151 0 0 0 0.039937 
2685 1 9.12913 6.36326 3.57199 0 0 0 0.101145 
1453 1 8.65733 7.15748 4.0736 0 0 0 0.0193625 
516 1 0.374696 7.28862 0.0375209 0 0 0 0.0420881 
3071 1 6.59568 8.56602 4.09862 1 0 0 0.0351103 
4137 2 1.5768 9.46831 4.20514 1 1 1 0.0927908 
2169 1 0.943183 9.07957 3.70406 1 0 0 0.143135 
1526 1 9.60009 8.49728 0.187407 0 0 1 0.0299879 
3889 2 7.70379 9.55291 1.27887 0 -1 1 0.00912387 
818 1 0.482057 9.57558 2.16762 0 0 0 0.0216433 
787 1 7.56956 4.71524 4.77362 0 0 0 0.0188596 
3871 2 6.48882 7.79425 0.11383 0 0 0 0.0249264 
1089 1 6.92419 0.0603837 4.40602 0 0 0 0.0114394 
1813 1 7.949 5.82979 0.104861 0 0 1 0.0591667 
774 1 4.5401 9.60003 2.55092 0 0 0 0.0184319 
2000 1 7.8448 9.59799 3.08641 0 0 0 0.148087 
3309 1 0.164359 5.82097 1.1931 1 0 0 0.0109597 
568 1 8.52381 7.94301 4.7789 0 0 -1 0.0400038 
305 1 0.0525932 3.65338 1.24079 0 1 -1 0.105948 
1218 1 0.0855881 4.66893 1.54976 0 0 2 0.0481093 
169 1 4.93491 5.88152 0.00486073 0 0 0 0.0315417 
1095 1 8.78236 6.25598 4.66701 0 0 0 0.0489559 
1230 1 9.58922 5.32077 3.72473 0 0 1 0.0937921 
12 1 0.265124 7.74669 1.09166 0 0 0 0.00854672 
1717 1 9.64057 1.60658 4.47392 0 0 1 0.00698916 
3994 2 0.131974 4.25596 4.7243 1 0 0 0.0695471 
2717 1 0.217367 5.51147 0.0772169 1 0 0 0.0663789 
1644 1 9.00161 1.33591 0.0410457 0 0 1 0.0540974 
206 1 5.85188 5.31831 0.0528251 0 0 1 0.021509 
4230 2 8.71608 6.33098 0.00251259 1 0 0 0.0409974 
3024 1 0.89148 0.875881 5.79182 1 1 0 0.0355357 
3558 2 0.21963 1.29887 6.03822 1 0 1 0.01528 
3069 1 0.213647 7.96685 7.02467 1 0 0 0.0359199 
43 1 4.36486 7.78227 9.58817 0 0 -1 0.101778 
3497 2 4.85003 1.46851 9.36913 0 0 2 0.0534907 
1276 1 1.86428 0.714364 6.03731 0 0 -1 0.0508901 
4300 2 1.5489 1.41118 5.66294 0 1 0 0.0388074 
2933 1 2.4108 1.4944 5.55038 0 1 0 0.0396573 
2956 1 9.55729 0.544498 7.93423 1 1 0 0.0652391 
1764 1 2.90132 0.700236 5.90534 0 1 -1 0.10858 
4273 2 4.18579 0.93145 5.88271 1 1 0 0.0403285 
1720 1 3.69821 0.683929 5.24489 0 0 0 0.0737591 
578 1 3.42345 1.58406 5.8616 0 0 0 0.0634395 
3999 2 4.38148 8.61681 9.37082 0 0 0 0.0731721 
582 1 4.94545 0.900626 5.43601 0 0 0 0.0401711 
471 1 4.79002 0.295511 6.26896 0 1 1 0.0629694 
417 1 5.6583 0.999228 6.21158 0 1 0 0.0212086 
2048 1 5.91625 1.20049 5.15805 0 0 -1 0.0326626 
41 1 3.54702 6.74924 9.58028 0 0 0 0.0081282 
2201 1 6.9416 0.688225 5.3828 0 0 0 0.0229097 
880 1 6.5109 0.303827 6.3662 0 1 0 0.074302 
1710 1 7.9379 1.2684 5.50496 0 0 1 0.0763968 
3822 2 7.5435 0.312883 4.99032 0 1 -1 0.0649823 
286 1 7.32754 1.12572 6.5124 0 1 0 0.0502511 
1310 1 6.57079 1.54881 5.92351 0 1 0 0.0744354 
1036 1 8.98637 1.13035 5.48788 0 0 1 0.0821475 
1291 1 8.41424 0.765888 6.4144 0 1 0 0.160937 
2780 1 9.05084 4.58721 9.08566 0 1 -1 0.0217423 
2493 1 9.31496 1.53888 6.41716 0 0 0 0.0140289 
3579 2 0.51378 0.586712 8.12222 0 0 0 0.01909 
4048 2 0.628466 2.41091 5.46202 1 1 0 0.176398 
141 1 0.873311 1.83193 6.08575 0 0 0 0.0198765 
1527 1 0.18066 3.15847 5.79936 1 0 -1 0.133119 
154 1 1.25946 3.2478 5.63959 0 0 0 0.0687619 
3324 1 1.65903 2.30825 5.56837 1 1 0 0.116385 
2068 1 8.29726 0.251671 5.36072 0 0 0 0.0551343 
1521 1 2.18613 3.2275 6.2558 0 0 0 0.0680884 
1861 1 8.20263 9.63565 5.98543 0 0 0 0.0257002 
1131 1 2.80637 2.392 6.05267 0 0 0 0.0361177 
1382 1 1.22516 7.88482 9.40848 0 0 0 0.0283856 
1069 1 4.59552 1.66717 6.21715 0 0 0 0.0414101 
248 1 4.65823 2.46241 5.37855 0 0 0 0.0444777 
83 1 3.9822 2.60153 6.16922 0 0 -1 0.0114913 
1425 1 3.55483 2.50456 5.25663 0 1 0 0.0145159 
3503 2 4.03206 3.17931 5.31139 0 0 1 0.00798408 
1801 1 5.0639 2.59877 6.40573 0 1 0 0.051511 
3727 2 6.07843 2.00314 6.55085 0 1 -1 0.0675031 
881 1 5.55649 3.01333 5.52927 0 1 1 0.0817314 
2093 1 5.53647 1.97457 5.80233 0 0 0 0.049807 
1082 1 6.43327 2.5286 5.86109 0 0 -1 0.101344 
1117 1 7.57431 2.26386 5.90621 0 0 0 0.0631186 
3144 1 0.355001 8.12322 8.91224 1 0 0 0.0821395 
2097 1 8.55995 2.08433 5.69805 0 0 0 0.069425 
3688 2 9.17848 2.63043 5.86244 0 0 2 0.0851126 
4301 2 8.2498 2.78195 6.10809 0 0 0 0.0645141 
941 1 0.557107 4.05943 5.69222 0 1 0 0.125748 
1839 1 7.57796 8.58978 4.8478 0 0 -1 0.00998519 
1826 1 8.9641 8.21755 8.92253 0 0 -1 0.0951592 
3149 1 0.0880243 0.0510126 5.50993 1 0 0 0.0261162 
188 1 3.14653 9.45542 8.23047 0 0 0 0.0325642 
3747 2 1.87659 3.78116 5.48671 0 0 0 0.106373 
389 1 1.53124 4.5683 5.68199 0 1 0 0.119386 
719 1 2.46085 4.25424 6.03874 0 0 1 0.0498082 
1321 1 1.46088 3.90743 6.43944 0 0 0 0.0724125 
1477 1 3.11119 3.49879 5.70105 0 1 0 0.0406388 
3610 2 8.07553 0.162797 6.9506 0 0 0 0.242208 
1924 1 4.60684 3.43058 5.86805 0 0 0 0.054589 
341 1 3.91555 4.14831 5.41914 0 1 0 0.0434151 
4042 2 3.84558 3.65513 6.36072 0 1 1 0.024675 
3814 2 8.93983 3.05121 9.64313 -1 0 1 0.0225736 
1074 1 5.13306 4.52438 5.73558 0 0 0 0.0159728 
4088 2 5.99994 4.39587 5.91054 1 0 -1 0.0835834 
1136 1 5.82442 4.00493 5.12046 0 0 0 0.032193 
1565 1 5.52427 3.70147 6.25541 0 0 -2 0.0958902 
127 1 7.7106 3.31258 5.74191 0 0 0 0.00929622 
4117 2 6.32686 3.13724 5.23338 0 0 0 0.105721 
1819 1 6.63755 3.84861 5.87117 0 0 0 0.0305005 
3970 2 7.38482 4.19842 5.40494 0 1 -1 0.0152153 
96 1 6.71538 4.82386 6.35646 0 0 0 0.00442396 
1261 1 7.59602 4.09959 6.43818 0 0 0 0.0117036 