ITEM: TIMESTEP
52800
ITEM: NUMBER OF ATOMS
4320
ITEM: BOX BOUNDS xy xz yz pp pp pp 
0 19.5224 0.21241
0 19.31 0
0 9.655 0
ITEM: ATOMS id type x y z ix iy iz msd_nonAffine 
3378 1 0.990535 0.55332 0.429497 1 1 1 0.0135272 
486 1 1.4937 0.788131 1.29067 0 1 1 0.0215051 
697 1 2.45637 9.49773 1.72549 0 0 0 0.0286169 
332 1 0.931077 1.56336 0.902383 0 1 0 0.019964 
964 1 2.09191 0.746644 0.514813 0 1 1 0.0602407 
187 1 1.96525 3.25674 0.167614 0 0 0 0.0240955 
3697 2 1.87156 1.61858 0.880873 1 1 1 0.0416273 
135 1 2.78396 1.32844 0.98244 0 1 1 0.0146768 
1553 1 4.27281 0.794003 0.505549 0 0 0 0.05516 
4065 2 3.59962 1.46767 0.532167 1 1 1 0.0376545 
1198 1 3.2845 0.409618 0.847217 0 0 1 0.063998 
868 1 3.78362 1.29311 1.37534 0 1 0 0.0111608 
3422 1 4.30384 0.387074 1.64911 1 1 0 0.0802166 
1493 1 4.76225 1.30423 1.31321 0 1 1 0.0474281 
4074 2 4.86199 0.492827 1.03152 0 1 1 0.137966 
3203 1 5.27706 1.03162 0.413178 1 0 0 0.0606977 
1264 1 5.97419 1.35424 1.14661 0 1 0 0.0372505 
376 1 5.98703 0.295492 0.894834 0 1 0 0.00694353 
3758 2 6.21607 0.661393 1.70204 0 0 1 0.0699783 
663 1 6.85285 0.77568 1.17648 0 0 0 0.071358 
963 1 6.65322 1.29315 0.329858 0 1 1 0.0559001 
4222 2 6.69363 0.448595 0.205969 1 0 -1 0.00648684 
3903 2 9.01839 0.428807 0.131286 0 1 -1 0.0252193 
2399 1 4.29705 9.48433 1.18286 0 0 0 0.0399806 
2154 1 7.73435 0.78007 1.67107 0 0 1 0.1281 
201 1 2.52492 4.26018 0.114064 0 0 2 0.0552072 
1783 1 9.43146 0.6409 1.00234 0 1 0 0.00740045 
1177 1 8.63577 1.43451 0.932335 0 0 1 0.011851 
2805 1 8.35712 0.481102 0.82179 1 1 1 0.0604216 
3124 1 9.39197 3.16135 1.99836 0 0 1 0.0379661 
648 1 7.90363 3.67384 4.69379 0 0 0 0.00784482 
1260 1 8.4261 9.36996 1.13263 0 0 0 0.152759 
3694 2 9.36456 0.0756185 3.45609 0 1 1 0.0998233 
2926 1 1.54718 2.43566 0.605254 1 1 1 0.00727338 
2794 1 0.416979 2.54921 0.882914 1 0 0 0.036979 
3597 2 0.887848 3.22189 1.46843 0 1 0 0.0937538 
2214 1 6.59944 6.78206 4.7663 0 0 1 0.0135798 
885 1 2.53747 2.3923 0.9005 0 1 1 0.03551 
900 1 6.85456 7.84355 4.79834 0 1 0 0.0443577 
512 1 1.71756 3.2642 1.19741 0 0 0 0.0106656 
3535 2 3.1777 3.06923 1.22632 0 1 0 0.0105767 
4233 2 3.62318 0.14345 3.40465 1 1 1 0.0291536 
3224 1 4.4155 1.80517 0.50362 1 1 0 0.0419467 
1822 1 3.55751 2.2974 0.972776 0 1 0 0.0405753 
1031 1 4.53928 2.5637 1.32709 0 0 0 0.0524571 
3604 2 4.11067 2.58687 0.330564 0 0 0 0.00634989 
4308 2 4.10592 1.92227 1.761 0 0 1 0.116613 
640 1 4.8972 2.97242 0.413645 0 0 1 0.0225089 
1704 1 5.92886 3.09577 0.218031 0 0 1 0.0138017 
568 1 8.44957 8.0284 4.7892 0 0 -1 0.0294379 
100 1 5.51788 3.05641 1.25137 0 0 0 0.0337846 
951 1 5.38778 2.09939 0.778947 0 1 1 0.0666423 
1055 1 7.63188 1.55026 0.90081 0 0 0 0.059479 
3784 2 6.86599 1.62054 1.11467 0 0 -1 0.0570057 
629 1 6.38372 2.37272 0.699512 0 0 0 0.0924084 
1563 1 7.39662 2.49079 1.2881 0 0 0 0.0250788 
576 1 8.0287 3.07322 0.545592 0 0 0 0.0328957 
1632 1 8.16293 1.81841 1.71942 0 0 0 0.0265873 
3737 2 8.27222 2.29267 0.912729 1 1 0 0.0166287 
3175 1 9.18132 2.24727 0.690505 1 0 1 0.0079564 
1395 1 8.36765 2.85572 1.5882 0 1 1 0.0282215 
571 1 1.27456 9.52548 0.600436 0 0 1 0.00501663 
790 1 2.48416 0.294304 1.54133 0 1 0 0.0432754 
3383 1 0.915467 3.30003 0.369792 1 0 1 0.0565572 
547 1 0.999131 4.04989 1.20419 0 0 1 0.0680754 
2997 1 0.323261 4.27352 0.362052 1 0 0 0.0196191 
72 1 1.51743 4.1851 0.268343 0 0 0 0.0495036 
516 1 0.382086 7.23074 0.0985875 0 0 0 0.0514621 
4165 2 9.66328 7.3909 2.4072 0 0 1 0.0604474 
2007 1 1.89639 4.60422 1.21734 1 0 0 0.0160995 
2494 1 9.63872 4.10838 2.30296 0 0 0 0.0870371 
3150 1 2.66719 3.73039 1.07595 1 0 0 0.0211328 
1485 1 3.99413 3.26571 0.847352 0 1 1 0.00198754 
380 1 4.45589 4.0595 0.182437 0 1 1 0.0231259 
34 1 3.49339 4.22351 0.628488 0 0 0 0.0150522 
1056 1 4.65878 4.03838 1.18693 0 0 0 0.0186786 
965 1 3.55797 3.694 1.6717 0 0 1 0.0500714 
3915 2 5.2303 3.81 0.556167 0 1 1 0.0826236 
555 1 5.33576 4.64658 0.583318 0 0 0 0.0330842 
1214 1 6.07092 3.92019 0.828271 0 0 1 0.0796205 
910 1 5.69124 3.93356 1.86398 0 1 0 0.104679 
810 1 6.89227 3.26973 0.56811 0 1 1 0.0278941 
630 1 2.34814 9.48661 4.78492 0 0 0 0.0223189 
981 1 7.44436 4.12368 0.183395 0 1 0 0.0372138 
3546 2 6.88943 4.13079 0.82742 0 0 1 0.0806311 
2081 1 7.58853 3.67082 1.31718 0 0 0 0.0313062 
2050 1 6.47807 3.24672 1.57705 0 0 0 0.0576598 
303 1 9.51822 2.37951 2.72349 0 1 0 0.0676278 
639 1 9.01977 3.36213 0.954512 0 0 0 0.0115193 
1153 1 9.28105 4.58865 1.21338 0 0 0 0.054503 
1946 1 8.40042 4.23448 0.734127 0 1 0 0.0185639 
3094 1 0.98384 4.98584 0.76722 1 0 0 0.0518348 
2010 1 1.09829 5.94189 0.373396 1 0 0 0.0380143 
2451 1 8.87027 8.96343 4.40711 0 0 1 0.0545941 
738 1 9.52733 9.22018 2.57039 0 0 0 0.0860534 
3096 1 1.35161 9.63377 3.10723 1 0 1 0.00442054 
4081 2 2.03857 6.13793 0.475575 1 1 0 0.0262209 
1976 1 1.82452 5.6057 1.1387 0 0 1 0.0619818 
2670 1 1.92932 5.21688 0.172108 1 0 1 0.0688145 
1042 1 2.7222 6.16232 1.00494 0 0 1 0.0188561 
1233 1 2.70416 4.99474 0.839643 0 0 1 0.0501538 
205 1 3.19755 9.60309 3.30646 0 0 0 0.0251922 
3059 1 3.70423 4.77043 1.44736 1 0 0 0.0227062 
2654 1 4.32552 5.03052 0.620594 1 0 1 0.0135093 
138 1 3.70945 5.8049 0.904497 0 0 1 0.011041 
3671 2 3.43217 5.08886 0.3531 0 0 1 0.02668 
3034 1 4.93597 5.73402 1.04093 1 0 0 0.0126239 
3971 2 5.70653 5.43403 0.768461 0 0 0 0.0476784 
146 1 6.55371 5.95375 0.375411 0 0 0 0.0554548 
655 1 6.01467 6.01493 1.37145 0 0 0 0.0479077 
977 1 0.360587 6.00392 3.91091 0 1 1 0.0364942 
2653 1 7.44462 4.67016 1.10553 0 0 1 0.0568133 
537 1 6.45349 4.8834 0.789675 0 0 0 0.0298445 
80 1 7.41359 5.68077 0.947006 0 0 -1 0.0711602 
4073 2 8.1072 5.90598 1.46271 0 0 0 0.154741 
3679 2 8.04682 5.164 0.625043 0 1 2 0.0218214 
3526 2 9.42813 8.32679 2.92098 -1 0 0 0.0138764 
2105 1 6.84337 3.96219 4.72911 0 0 0 0.00478517 
305 1 0.0701421 3.46584 1.14189 0 1 -1 0.0954041 
2497 1 8.6429 5.74205 0.796348 0 0 0 0.0342953 
1215 1 8.35689 5.00973 1.42899 0 0 1 0.0729997 
23 1 7.71751 6.64081 4.66569 0 0 0 0.0990281 
2380 1 4.34358 9.60165 0.0786054 0 0 0 0.0842055 
1077 1 0.714716 6.70019 0.940889 0 0 0 0.0215275 
17 1 1.47684 7.67596 1.07998 0 0 1 0.0203706 
580 1 5.54205 9.49647 0.236855 0 0 1 0.0314607 
2250 1 1.73373 6.68087 1.11036 1 0 0 0.0446238 
2303 1 2.16787 7.91849 0.325861 1 1 0 0.0279434 
3731 2 2.28641 7.93073 1.34495 0 0 0 0.00516503 
759 1 2.48744 6.82402 0.235707 0 0 1 0.0214388 
1830 1 2.70635 7.20133 1.24963 0 0 0 0.00711788 
1252 1 7.51072 0.579913 0.324289 0 1 1 0.0814347 
961 1 4.29639 6.50878 0.363244 0 1 1 0.0319768 
3878 2 3.32005 6.77767 0.748651 0 0 2 0.0378318 
543 1 3.87643 7.378 0.821049 0 0 1 0.00663057 
781 1 5.55397 6.44458 4.81681 0 0 0 0.00146528 
985 1 5.57513 6.53172 0.516171 0 0 1 0.0242905 
270 1 4.9118 7.22795 0.768752 0 0 0 0.146157 
1191 1 6.49119 7.85298 0.968851 0 0 0 0.0332937 
4287 2 5.93876 7.20715 0.836737 0 0 0 0.132771 
140 1 9.49098 4.1732 4.31148 0 0 1 0.0485476 
1963 1 5.64721 7.81683 0.217668 0 0 1 0.0386776 
3539 2 7.30227 6.52494 0.285968 0 0 1 0.118536 
1101 1 7.90981 6.55081 0.862735 0 0 1 0.0772006 
1364 1 7.38951 7.49312 0.478865 0 0 0 0.0281946 
1222 1 6.74942 6.81375 1.13118 0 0 0 0.0523615 
1980 1 7.5335 7.36086 1.57714 0 0 0 0.243519 
3028 1 0.129996 6.56475 1.8675 1 0 0 0.0722564 
2416 1 8.47078 7.42027 0.799444 0 0 1 0.133849 
551 1 9.13239 6.57929 0.998615 0 0 0 0.062588 
4118 2 5.83036 9.56496 1.9144 1 1 1 0.00847009 
3168 1 1.49365 7.55957 4.6334 1 0 0 0.0194727 
646 1 0.959363 8.4572 0.67786 0 0 1 0.0259985 
3126 1 0.449725 9.14865 1.23846 1 0 1 0.00302447 
979 1 0.013161 0.855949 0.872973 0 1 0 0.0532709 
121 1 2.11896 8.74392 0.991875 0 0 0 0.0677681 
2833 1 2.79235 8.73476 0.208635 1 0 1 0.0365381 
959 1 3.11353 8.15483 1.08828 0 0 0 0.0182656 
998 1 3.21623 9.20127 1.05868 0 0 1 0.0120739 
2736 1 0.123499 3.72783 3.07576 1 0 0 0.0319829 
645 1 4.31878 8.30315 1.27165 0 0 1 0.00932726 
203 1 3.8267 8.73901 0.377392 0 0 1 0.0248868 
3912 2 9.58239 3.16237 4.64827 0 1 0 0.0329401 
228 1 5.30807 9.27141 1.27803 0 0 0 0.0613722 
2263 1 4.89594 8.7246 0.496999 0 0 0 0.015684 
1120 1 5.3047 8.07608 1.28619 0 0 0 0.13225 
3064 1 6.13309 8.76744 0.557142 1 0 0 0.0365026 
204 1 6.14054 8.72328 1.5935 0 0 0 0.137047 
3309 1 0.146177 5.7008 1.19871 1 0 0 0.00502017 
3629 2 7.09324 8.32224 1.75973 0 0 0 1.85235 
1613 1 7.04702 8.7926 1.04904 0 0 1 0.0154492 
2757 1 7.74657 9.3173 0.247479 0 0 0 0.0488971 
29 1 7.17544 5.18118 0.0841534 0 0 0 0.0443409 
2626 1 7.93859 8.37191 0.860658 0 0 0 0.296668 
1908 1 9.04261 8.38064 1.05809 0 0 0 0.0341534 
3226 1 8.12942 9.47374 3.95085 1 0 0 0.0470518 
1216 1 8.93444 9.39425 3.36722 0 0 0 0.0595985 
3412 1 1.91388 0.117641 3.34368 1 1 0 0.0190392 
3304 1 2.58485 7.27894 4.76854 1 0 0 0.020757 
2551 1 0.547351 0.597606 1.7783 1 0 0 0.0598393 
3279 1 1.0657 0.563152 2.79625 1 1 0 0.0132472 
597 1 0.876578 1.53073 2.13783 0 0 0 0.119153 
993 1 0.499539 1.38387 3.15397 0 1 0 0.0177515 
2711 1 2.29938 1.75357 0.0986217 1 1 1 0.02475 
946 1 7.36056 2.27779 0.299752 0 1 1 0.186725 
3011 1 1.92525 1.61252 1.73091 1 0 0 0.0397135 
2595 1 2.10239 0.725145 2.39936 0 0 0 0.0046045 
2565 1 1.55221 1.50263 2.99974 1 0 0 0.0535243 
1262 1 2.57203 1.61708 2.60031 0 1 0 0.0759289 
950 1 3.08 0.877427 2.10868 0 1 0 0.0430737 
1238 1 2.85223 0.728759 3.20134 0 0 0 0.203048 
4130 2 3.98577 0.944398 2.19622 0 0 -1 0.0467143 
3430 1 4.70847 1.34815 2.37891 1 1 1 0.0306869 
3272 1 3.95064 0.958194 3.13769 1 1 0 0.034327 
416 1 4.84461 0.370101 2.77219 0 1 1 0.0234216 
1875 1 5.3236 0.641815 1.80836 0 1 1 0.0324975 
3905 2 5.49702 1.03666 2.66042 1 1 0 0.0116013 
2405 1 6.1514 1.32111 2.16989 0 1 0 0.0243446 
27 1 5.97567 0.287365 2.67417 0 1 0 0.0701635 
2689 1 6.20001 1.06497 3.2904 1 0 0 0.0205122 
3459 2 6.81192 1.19665 2.74759 0 0 0 0.0496131 
1032 1 6.92253 0.463435 2.22796 0 0 0 0.0821901 
820 1 7.89415 1.24145 2.6683 0 1 0 0.0703218 
1722 1 7.86526 0.183453 2.68767 0 0 1 0.0776534 
1863 1 8.81394 0.901548 1.78159 0 1 0 0.0418621 
1231 1 8.9816 0.334655 2.63557 0 0 1 0.00646354 
3639 2 8.69861 1.20023 2.95431 0 0 1 0.046118 
3991 2 9.62021 6.07386 4.34301 0 1 1 0.0527739 
89 1 1.19428 2.37659 1.56293 0 0 -1 0.0387511 
1104 1 8.31113 2.08633 0.0731463 0 0 0 0.0200227 
1234 1 0.255971 2.65437 1.92746 0 0 0 0.0499054 
2910 1 0.887669 2.36186 2.71581 1 0 1 0.100039 
4068 2 0.633306 3.13989 2.89452 1 0 -1 0.0286062 
1647 1 1.36864 3.24852 2.18005 0 0 0 0.00878711 
541 1 6.79893 9.55357 1.72852 0 0 0 0.0650663 
288 1 2.6683 3.06226 1.91522 0 1 0 0.0271314 
3586 2 2.03384 2.57208 1.67606 0 0 1 0.0409005 
636 1 1.88068 2.37943 2.51421 0 0 0 0.030427 
3377 1 2.85908 2.63627 2.95354 1 1 1 0.0776141 
3319 1 2.91532 2.01939 1.75596 1 1 0 0.0292799 
3952 2 4.35803 1.69116 3.07541 1 1 0 0.00246343 
1123 1 3.69148 1.73515 2.48349 0 0 0 0.00492249 
538 1 3.66684 2.71562 1.98361 0 0 0 0.0159635 
610 1 4.62696 2.36718 2.45833 0 0 0 0.0064497 
4097 2 5.14387 2.86923 3.05334 0 0 1 0.0456613 
527 1 5.41114 2.0209 1.80164 0 0 0 0.00171467 
427 1 6.43263 2.21234 1.68384 0 1 0 0.0255731 
699 1 5.5252 1.94305 2.77684 0 0 1 0.0101854 
1026 1 5.75367 2.91236 2.35637 0 0 0 0.0187845 
354 1 7.21961 1.68553 2.03565 0 1 0 0.0655191 
4141 2 7.83551 2.51419 2.13888 0 2 0 0.0115794 
2060 1 6.56958 2.16566 2.87326 0 0 0 0.00767215 
753 1 7.08717 2.8759 2.39702 0 0 1 0.0244612 
2422 1 7.64535 2.26869 2.97052 0 1 1 0.0527363 
1250 1 9.17832 2.09651 1.7582 0 1 0 0.00301785 
706 1 8.57672 2.02775 2.68277 0 0 0 0.0315852 
2532 1 0.632278 0.0695877 3.7654 1 0 0 0.0470514 
3921 2 8.70103 2.8346 2.41914 0 1 -1 0.0448442 
1141 1 4.99564 4.5292 4.72136 0 0 0 0.0246809 
2357 1 9.1833 5.0292 0.2257 0 0 0 0.0366473 
1294 1 0.443158 3.84437 2.03118 0 1 0 0.136423 
589 1 0.645537 4.68186 2.67924 0 0 0 0.176392 
718 1 4.50535 6.08994 4.67185 0 0 0 0.0335493 
402 1 1.20623 3.7943 3.02378 0 0 0 0.0780086 
3556 2 2.12816 3.77346 1.7657 0 1 1 0.0234798 
613 1 2.2164 3.46797 2.83588 0 0 -1 0.0615061 
2897 1 1.74344 4.25096 2.29676 1 1 1 0.0221678 
2002 1 2.49843 4.57299 2.8938 1 0 -1 0.0311348 
256 1 2.79545 4.47655 1.86392 0 0 0 0.0188867 
1433 1 4.22216 3.28959 2.75978 0 1 0 0.00219133 
3153 1 3.19791 3.80138 2.67566 1 0 1 0.0329104 
1288 1 4.30545 4.17288 2.26466 0 1 0 0.0506296 
1181 1 4.88233 3.36488 2.00864 0 0 0 0.001824 
3295 1 5.20853 3.80439 2.90541 1 1 0 0.0145616 
2213 1 5.28918 4.79222 2.39634 0 0 1 0.0804368 
2427 1 6.41145 3.65079 2.57848 0 1 0 0.0787237 
4235 2 7.77783 3.17933 3.17873 1 0 -1 0.00979759 
649 1 6.64514 4.28989 1.58109 0 0 1 0.122517 
3508 2 7.18175 3.68655 2.09803 0 1 1 0.0155017 
1639 1 7.67302 4.43499 2.07771 0 0 0 0.0517035 
1277 1 7.35483 3.94274 3.00383 0 0 -1 0.0217513 
1536 1 7.98878 3.38896 2.39318 0 0 0 0.00913996 
3869 2 8.24424 4.18593 2.91073 0 0 -1 0.0235008 
533 1 8.57642 3.95211 1.68656 0 0 0 0.0255708 
1158 1 8.89917 3.6768 2.75023 0 0 0 0.0231728 
1035 1 8.69128 4.72968 2.37975 0 0 1 0.0343906 
1347 1 1.18813 6.08396 1.87153 0 1 -1 0.0790587 
185 1 5.06999 1.66366 4.65692 0 0 1 0.0475126 
3095 1 1.08246 5.07072 1.86466 1 0 0 0.0470649 
829 1 0.617798 5.88164 2.75153 0 0 0 0.00782885 
3608 2 1.55963 5.83426 2.67222 0 0 0 0.0774476 
119 1 1.59062 5.13501 3.14229 0 0 1 0.0192684 
118 1 2.07316 5.26999 2.21919 0 0 0 0.0145591 
99 1 2.27735 6.00699 3.11514 0 0 0 0.017556 
633 1 2.28948 6.25098 2.02647 0 0 0 0.00375925 
3532 2 2.82941 5.41132 2.64415 0 1 0 0.00673804 
86 1 2.97171 5.47015 1.75471 0 0 0 0.046182 
1004 1 3.52887 4.83337 2.55396 0 0 1 0.00925181 
1994 1 4.07122 5.7129 1.93446 0 0 0 0.0191976 
64 1 4.48774 5.18417 2.79805 0 0 -1 0.00760084 
875 1 3.31546 6.14417 2.6959 0 1 1 0.00158639 
157 1 4.57397 6.18086 2.94435 0 0 1 0.00773335 
3520 2 3.84701 5.67344 3.1103 0 0 0 0.0101346 
1139 1 4.67588 4.97117 1.64795 0 0 0 0.0571296 
3037 1 5.05939 5.86074 2.07302 1 0 0 0.0269968 
525 1 5.75501 5.02435 1.52087 0 0 0 0.0867485 
4053 2 6.14061 4.4999 2.34382 0 0 -1 0.173743 
827 1 6.10359 5.56319 2.55611 0 0 0 0.0448674 
3575 2 6.45813 6.31611 3.08947 0 1 0 0.00871021 
1083 1 7.90719 4.96526 3.16071 0 0 0 0.00230276 
662 1 6.80129 5.34903 1.75795 0 0 1 0.113736 
635 1 6.89847 4.81251 2.72436 0 0 0 0.137702 
579 1 7.16968 5.89126 2.86308 0 0 0 0.0908255 
1628 1 7.91371 5.48313 2.21152 0 0 0 0.0831844 
3475 2 7.96097 5.83427 3.25777 0 0 -1 0.0518191 
724 1 4.12136 9.39176 3.92917 0 0 0 0.0286339 
1040 1 8.86256 5.89814 1.93708 0 0 1 0.0279381 
412 1 0.287868 1.54169 4.1973 0 1 1 0.0345408 
1156 1 8.78328 5.6378 2.98792 0 0 0 0.0172834 
2468 1 0.423367 7.19363 2.86053 1 0 0 0.179791 
3347 1 0.948293 7.22548 1.93981 1 0 0 0.00100716 
2790 1 1.44325 6.67934 2.74088 1 0 -1 0.00723276 
273 1 1.47184 7.82866 2.98862 0 0 -1 0.0938456 
3072 1 0.585906 8.12468 3.32013 1 0 0 0.23332 
3920 2 0.565218 7.89037 2.4032 1 0 0 0.586781 
564 1 2.48872 7.04939 2.96783 0 0 0 0.0151281 
770 1 1.98359 7.31795 2.04494 0 0 1 0.0148047 
4203 2 2.3328 7.9148 2.7207 0 0 0 0.0121688 
559 1 2.96216 7.86402 2.14466 0 0 0 0.00035879 
3827 2 2.8372 6.99089 2.24105 0 1 1 0.0340974 
3256 1 4.42292 6.60597 1.43503 1 0 0 0.05926 
3257 1 3.39123 6.63276 1.76096 1 0 0 0.0400907 
3741 2 4.6732 7.53394 1.56832 0 -1 2 0.23349 
2990 1 3.90035 7.5219 1.86059 1 0 0 0.0129801 
3855 2 4.0617 6.53919 2.26759 0 0 -1 0.0107643 
895 1 4.57003 7.1807 2.52668 0 0 1 0.0545069 
1530 1 3.54462 7.1644 2.77894 0 0 1 0.0144126 
3638 2 3.78758 8.06235 2.56185 0 0 0 0.00439706 
126 1 5.42329 7.76555 2.48578 0 0 0 0.0246996 
832 1 5.40715 6.88688 1.57584 0 0 0 0.123682 
556 1 5.50695 6.57178 2.75422 0 0 0 0.0407875 
224 1 6.43547 6.54033 2.26229 0 0 0 0.031631 
1602 1 6.24562 7.48041 1.92093 0 0 0 0.126739 
1410 1 6.18534 7.31847 3.03425 0 0 0 0.0251864 
1068 1 7.42826 6.30865 1.89281 0 0 0 0.191949 
1160 1 7.28667 7.10709 2.61543 0 0 1 0.039431 
3953 2 8.08237 7.3615 2.38875 0 0 -2 0.018827 
1438 1 8.12389 6.49427 2.7589 0 0 0 0.0424342 
2840 1 9.41827 7.43665 1.50996 0 0 0 0.0265594 
1539 1 8.44082 6.88414 1.76189 0 0 0 0.0369254 
1652 1 8.86914 7.61693 2.653 0 0 1 0.0158013 
1388 1 9.19588 6.66373 2.49413 0 0 1 0.0300454 
1645 1 3.54036 3.42316 4.71283 0 0 0 0.0135924 
3547 2 8.7471 6.93723 3.16072 -1 1 0 0.0151099 
2566 1 1.39041 9.27213 1.71029 1 0 0 0.00655561 
18 1 0.873899 8.2804 1.70794 0 0 0 0.0060637 
4174 2 0.487628 9.24448 3.21582 1 0 0 0.0270823 
742 1 1.03393 8.7669 2.61931 0 0 1 0.006671 
3569 2 0.164382 6.36679 0.238618 0 0 2 0.0877792 
3107 1 2.88692 5.8028 0.103082 1 0 1 0.0254006 
136 1 1.91207 8.36816 2.06785 0 0 0 0.014966 
3964 2 1.87998 9.21015 2.47403 0 0 0 0.00222348 
4284 2 2.65753 8.64884 1.67592 0 0 2 0.0492905 
2635 1 2.67157 8.88908 2.57267 1 0 0 0.0313194 
665 1 5.76086 8.41262 3.39163 0 0 1 0.0149176 
3973 2 4.70887 8.88698 1.77166 0 0 -1 0.0397731 
144 1 3.51901 8.69529 1.91097 0 0 0 0.018956 
644 1 4.54829 8.26688 2.32787 0 0 1 0.00629537 
3269 1 3.83283 8.84334 2.93419 1 0 0 0.0115498 
774 1 4.54774 9.48322 2.34426 0 0 0 0.0250272 
3815 2 5.00873 8.22689 3.05801 0 1 0 0.013995 
307 1 5.42528 8.87256 2.29573 0 0 0 0.0334221 
3583 2 6.54707 8.64581 3.25363 -1 0 1 1.19721 
1016 1 6.36205 9.28721 2.63208 0 0 0 0.0349843 
2717 1 0.180629 5.38085 0.0678816 1 0 0 0.0393079 
3947 2 3.29609 7.91748 4.81033 1 0 1 0.18294 
1752 1 7.60857 8.13076 2.53946 0 0 0 0.0710392 
1832 1 6.57704 8.23276 2.50897 0 0 0 0.672325 
1442 1 7.71303 8.90493 1.81955 0 0 0 0.1876 
4279 2 7.13783 8.90139 2.50904 1 0 0 0.134783 
1529 1 6.97495 7.76507 3.44793 0 0 0 0.546789 
2447 1 8.8214 8.17467 3.59738 0 0 0 0.0337917 
1134 1 8.38023 7.9884 1.7782 0 0 1 0.0340102 
4223 2 8.85021 8.91042 1.71457 1 0 1 0.00911407 
1142 1 8.54043 8.64512 2.59262 0 0 1 0.133595 
626 1 1.47294 7.03801 0.136162 0 0 0 0.0581285 
751 1 9.40749 8.29712 2.08741 0 0 1 0.0178108 
4186 2 9.52811 1.33444 1.50259 0 1 1 0.0324131 
107 1 1.19951 0.944157 3.93466 0 0 0 0.0395385 
3814 2 8.77 2.763 0.119532 -1 0 2 0.047441 
431 1 0.432905 2.45341 4.75024 0 1 0 0.0151499 
3410 1 2.27734 0.991543 3.9606 1 1 0 0.0958406 
1353 1 0.683684 0.590176 4.74542 0 1 0 0.0324794 
4194 2 4.47153 0.364545 3.63748 1 1 1 0.0157732 
401 1 3.486 0.741811 4.0956 0 1 0 0.0365825 
627 1 4.5278 0.751107 4.45825 0 0 0 0.0251676 
355 1 4.0916 1.62892 4.00019 0 1 0 0.0896894 
1813 1 7.99396 5.88438 0.02671 0 0 1 0.0228521 
2995 1 1.77872 8.56432 4.45729 1 0 0 0.0156168 
904 1 5.01609 1.16884 3.37049 0 1 2 0.0188924 
2000 1 7.99778 9.5234 2.74674 0 0 0 0.0980304 
4038 2 5.47605 0.434692 3.33478 0 1 0 0.0134404 
12 1 0.23433 7.70082 1.00544 0 0 0 0.0162499 
3143 1 5.63221 0.86631 4.19923 1 0 0 0.0411708 
383 1 7.01125 0.412149 3.38348 0 1 1 0.0655965 
1805 1 7.68565 0.974961 4.49253 0 1 -1 0.109841 
1326 1 6.65212 1.06779 4.40396 0 1 -1 0.0651421 
1304 1 7.25179 1.42838 3.55118 0 1 0 0.0685697 
1362 1 8.61047 8.76946 0.16098 0 0 0 0.0626383 
730 1 6.04597 9.3491 3.60669 0 0 1 0.0109314 
2177 1 8.11164 0.73014 3.52552 0 0 0 0.068257 
2165 1 9.51376 9.30454 1.41745 0 0 1 0.0332828 
1557 1 9.26583 1.05389 3.56543 0 0 0 0.0297718 
1227 1 8.81064 0.662987 4.45263 0 0 1 0.0127413 
2861 1 9.53223 7.47887 3.38757 0 0 0 0.014933 
518 1 1.45781 2.83239 4.50841 0 0 0 0.0279217 
3659 2 0.357558 2.09805 3.55575 1 1 -1 0.0325117 
814 1 1.18949 2.00535 3.83571 0 1 0 0.0255764 
2675 1 0.541262 2.95075 3.77954 1 0 1 0.0294288 
4184 2 2.66683 3.82367 3.4174 1 1 -1 0.802746 
2537 1 1.58135 2.92416 3.43692 1 0 -1 0.0834719 
1396 1 1.92501 1.80134 4.55879 0 1 0 0.114215 
932 1 2.2284 2.1563 3.62354 0 1 1 0.0849083 
3340 1 3.05559 2.57311 4.14004 1 1 0 0.0100699 
151 1 3.17285 1.69862 3.54388 0 0 0 0.0725767 
607 1 3.80866 2.44581 3.2336 0 0 0 0.0321424 
778 1 4.11753 2.62707 4.3241 0 1 0 0.0296734 
2644 1 0.812471 9.16137 4.76026 1 0 1 0.0418868 
2024 1 5.29975 2.68174 4.36898 0 0 -1 0.00912142 
1736 1 4.86064 2.20736 3.59503 0 0 1 0.027694 
1721 1 5.9236 2.82353 3.38974 0 0 0 0.0539392 
909 1 5.83169 1.85332 3.93126 0 1 0 0.0495051 
709 1 6.26835 3.0794 4.33142 0 0 0 0.00280191 
1878 1 7.13815 9.25136 3.3457 0 0 1 0.0119066 
1566 1 6.96447 3.01691 3.38653 0 0 0 0.0319903 
3854 2 7.62727 1.84579 4.16995 1 0 -2 0.0685413 
215 1 6.76148 2.14199 4.11606 0 0 0 0.108408 
2149 1 7.81042 2.82866 3.99259 0 0 0 0.0469429 
3797 2 7.49346 0.11787 1.11979 0 1 -1 0.101622 
517 1 5.62881 8.60748 4.53268 0 0 0 0.0386061 
1916 1 8.27247 1.7602 3.62146 0 1 1 0.041997 
2302 1 9.31471 5.22629 4.69364 0 0 0 0.0981751 
1626 1 9.41024 6.03601 0.0868019 0 0 0 0.0179736 
1624 1 8.6833 2.86863 3.34726 0 0 -1 0.0125616 
1349 1 7.08362 9.47592 4.3657 0 0 -1 0.044514 
1678 1 9.29824 2.14942 3.76268 0 0 0 0.0183442 
3717 2 8.55065 2.40397 4.15667 0 1 1 0.051904 
3320 1 5.11987 9.45282 4.28388 1 0 0 0.0304199 
3993 2 1.15516 3.5097 4.06955 0 0 1 0.203265 
2733 1 0.656093 4.2924 3.87951 1 0 1 0.139101 
198 1 2.4418 3.42096 4.08227 0 0 1 0.0236249 
1728 1 1.85223 4.26399 3.65492 1 0 1 0.0103421 
194 1 2.03574 4.67221 4.61975 0 0 1 0.03508 
487 1 4.79308 9.00231 3.2775 0 0 0 0.0359248 
301 1 3.06267 4.35417 3.95441 0 1 0 0.0199678 
710 1 4.79471 8.30756 4.02918 0 0 0 0.0215477 
3044 1 8.40792 1.63934 4.66449 1 0 0 0.0722576 
3155 1 3.95683 4.18226 3.27239 1 0 1 0.0689682 
1404 1 4.58141 3.38207 3.73151 0 1 1 0.00781885 
2569 1 3.44607 3.36006 3.61513 1 0 0 0.0101599 
2989 1 4.1461 4.1975 4.32411 1 0 0 0.0200575 
748 1 9.59839 7.9041 4.52311 0 0 0 0.018044 
335 1 4.95728 4.70883 3.63186 0 1 -1 0.026773 
2553 1 5.49769 3.86692 4.14052 0 0 -1 0.0225286 
1874 1 6.41235 3.81075 3.58727 0 1 0 0.0387588 
33 1 6.16044 4.695 4.21318 0 0 -1 0.0296006 
3554 2 3.43681 4.38686 4.79273 0 1 2 0.0357003 
1787 1 7.99565 0.0380742 4.28857 0 1 0 0.0492944 
184 1 9.6409 3.15461 3.75085 -1 0 0 0.00888515 
3864 2 7.33873 3.74633 3.91986 0 1 -1 0.0967389 
1532 1 7.09769 4.57662 3.7994 0 0 0 0.0181291 
1143 1 8.11405 3.90364 3.70061 0 0 1 0.00539404 
4236 2 0.151515 1.87759 2.46807 1 0 0 0.0227682 
1193 1 8.73785 3.28694 4.32975 0 0 1 0.0312404 
1554 1 3.02827 3.21222 0.247403 1 0 0 0.0210163 
3780 2 9.0609 3.75387 3.63222 0 0 2 0.0258401 
821 1 3.13212 8.12054 3.14193 0 0 0 0.00902268 
2528 1 8.89186 4.56142 3.45819 0 0 0 0.0316632 
705 1 9.64731 4.04554 0.315832 0 0 0 0.017498 
4253 2 0.630649 5.28907 3.51139 1 0 0 0.00822453 
3839 2 1.40766 6.02172 4.42378 0 1 1 0.0270027 
2727 1 1.09332 5.25068 4.1596 1 0 0 0.0644518 
40 1 1.33294 6.03416 3.54387 0 0 0 0.0220562 
1694 1 6.51889 7.0079 0.111746 0 0 1 0.0379945 
4122 2 0.75192 6.56781 3.30616 1 -1 0 0.185768 
3902 2 2.40669 4.91992 3.7759 1 0 1 0.0220123 
521 1 2.19319 5.72603 4.17504 0 0 0 0.000976389 
3640 2 3.03502 6.3651 3.4366 0 -1 1 0.0512567 
221 1 2.93916 6.41121 4.30453 0 0 0 0.0345945 
1848 1 2.90533 5.15967 4.62929 0 1 -1 0.0426796 
1653 1 3.08659 5.43697 3.54973 0 0 0 0.00573195 
1218 1 0.0656727 4.62694 1.37186 0 0 2 0.105182 
3477 2 3.64859 5.69796 4.40264 0 -1 -2 0.00169492 
1392 1 4.06624 5.1413 3.75621 0 1 1 0.00558085 
3523 2 4.79148 5.62837 3.69878 0 0 1 0.0472104 
1048 1 3.83844 6.25691 3.7627 0 0 0 0.014349 
3141 1 5.48245 5.59278 3.27405 1 0 0 0.0169705 
1654 1 5.4049 5.41963 4.30079 0 0 0 0.0282845 
172 1 5.91222 4.59982 3.17817 0 0 0 0.171142 
600 1 2.72475 8.84335 3.96916 0 0 0 0.0134807 
3600 2 8.05406 5.85952 4.52172 0 0 0 0.0746749 
4159 2 6.9038 6.04232 4.28658 0 0 0 0.0766115 
1445 1 6.46689 5.4527 3.57228 0 0 1 0.110296 
4100 2 6.90978 5.19672 4.3857 1 0 1 0.00938191 
2108 1 7.51017 5.56587 3.96603 0 0 0 0.0363486 
3798 2 7.97692 4.71871 3.94289 0 1 -1 0.076115 
3626 2 5.89376 1.63438 0.30799 0 0 0 0.103783 
465 1 1.94471 8.76557 3.34925 0 0 0 0.028084 
584 1 9.43191 1.38046 2.4551 0 0 0 0.0694462 
2037 1 8.54717 5.45854 3.96575 0 0 -1 0.0425353 
1876 1 8.20795 6.44011 3.77635 0 0 0 0.024127 
3426 1 0.608837 8.21431 4.39591 1 0 0 0.227427 
3889 2 7.46206 9.54577 1.08703 0 -1 1 0.123028 
1095 1 8.80465 6.30161 4.70973 0 0 0 0.0319102 
2119 1 0.808864 6.66172 4.69597 1 -1 1 0.00820925 
466 1 1.03263 7.23523 3.74009 0 0 1 0.0578588 
4240 2 1.39792 8.13709 3.86707 1 -1 0 0.0178275 
2929 1 7.78256 8.50035 3.68191 0 0 1 0.00776243 
2556 1 2.33432 7.87489 3.90733 1 0 1 0.00842798 
434 1 2.049 6.84514 3.83946 0 0 0 0.020685 
666 1 3.31644 7.2619 3.80144 0 0 0 0.00978377 
1244 1 4.26818 7.8846 3.25245 0 0 0 0.00862256 
3006 1 8.56754 4.42018 4.55608 1 0 0 0.0330634 
534 1 4.32416 7.26029 4.00354 0 0 0 0.0522021 
3763 2 4.18784 6.92638 3.24437 1 0 1 0.0441933 
4241 2 9.19705 9.16591 0.646413 0 0 1 0.0814399 
430 1 5.20333 7.37779 3.40506 0 0 0 0.0572933 
1275 1 5.18808 7.36872 4.47528 0 0 0 0.0229605 
766 1 5.04245 6.46314 3.91238 0 0 0 0.0330357 
57 1 6.16722 6.53789 3.86002 0 0 0 0.00699338 
1988 1 6.12057 7.64793 4.11418 0 0 0 0.0114188 
1039 1 3.70491 8.36311 4.07544 0 0 1 0.00241296 
4078 2 8.10941 1.15826 0.286222 0 1 0 0.0314492 
3041 1 7.20707 6.66842 3.68514 1 0 -1 0.0214114 
1705 1 7.65712 7.57687 4.26774 0 0 1 0.313645 
177 1 8.00901 7.38122 3.29933 0 0 0 0.0103621 
2685 1 9.18792 6.31606 3.56097 0 0 0 0.0811072 
1453 1 8.75401 7.28201 4.13359 0 0 0 0.00305884 
3092 1 3.36688 9.24597 4.73825 1 0 0 0.00988144 
3071 1 6.61861 8.56714 4.10713 1 0 0 0.0203472 
4137 2 1.65837 9.41127 4.29305 1 1 1 0.191147 
2169 1 1.03833 8.98989 3.82359 1 0 0 0.12845 
78 1 0.0646273 1.71395 1.58107 0 0 0 0.0771346 
787 1 7.63818 4.786 4.72951 0 0 0 0.00777269 
1140 1 3.16705 7.6762 0.0625964 0 0 0 0.0289105 
1839 1 7.59529 8.6241 4.80035 0 0 -1 0.000877221 
3247 1 3.81458 0.110291 2.60631 1 1 0 0.046242 
2822 1 9.71828 8.65551 3.79613 0 0 0 0.0578279 
3764 2 0.320616 5.29575 2.15141 0 0 2 0.0691713 
1504 1 3.0858 1.60773 4.6373 0 1 0 0.0714591 
3994 2 0.215143 4.25732 4.78125 1 0 0 0.0378342 
3840 2 9.51743 4.89726 2.91041 0 0 0 0.0905685 
1221 1 9.61853 5.20602 2.02276 0 0 1 0.0225615 
768 1 1.62363 3.79523 4.69296 0 1 0 0.0228145 
3522 2 0.0712823 1.75186 0.702022 0 0 0 0.0523067 
4230 2 8.54094 6.456 0.291175 1 0 0 0.0773953 
938 1 0.579818 3.51858 4.74297 0 1 0 0.0571673 
1526 1 9.61632 8.4704 0.0677475 0 0 1 0.00508519 
1667 1 9.20387 2.34732 4.74798 0 0 0 0.0650322 
1305 1 6.09452 0.00908006 3.77383 0 1 0 0.10419 
1503 1 7.05939 8.49462 0.0182915 0 0 0 0.0118325 
1192 1 6.2693 5.66932 4.77885 0 0 1 0.0446986 
3976 2 4.01807 9.63067 3.08738 1 0 0 0.043897 
1637 1 3.33145 2.167 0.0161539 0 0 1 0.0345214 
632 1 4.08189 5.09012 4.81966 0 0 0 0.0152712 
2599 1 0.151036 1.30559 0.00126222 1 0 0 0.0927033 
3024 1 0.889735 0.824142 5.77276 1 1 0 0.0248552 
3558 2 0.225317 1.28486 6.02189 1 0 1 0.0137237 
756 1 9.12103 9.55357 5.35198 0 0 1 0.0678556 
4129 2 5.1848 0.33813 4.83502 0 0 0 0.0613214 
3497 2 4.78839 1.41634 9.43188 0 0 2 0.0952606 
1276 1 1.86697 0.736967 6.16877 0 0 -1 0.033719 
4300 2 1.64423 1.51895 5.74199 0 1 0 0.046336 
2933 1 2.50244 1.42789 5.52122 0 1 0 0.00983663 
1111 1 6.19571 2.13201 4.94668 0 0 0 0.0663103 
1764 1 2.87075 0.572811 5.99575 0 1 -1 0.0896488 
4273 2 4.08557 0.885123 5.879 1 1 0 0.0888105 
1720 1 3.6509 0.70872 5.21384 0 0 0 0.0911385 
578 1 3.48769 1.5438 5.83247 0 0 0 0.0286541 
3999 2 4.31881 8.63725 9.33849 0 0 0 0.0911034 
582 1 4.83631 0.857136 5.46651 0 0 0 0.0996755 
471 1 4.76184 0.343077 6.35806 0 1 1 0.0885361 
417 1 5.55655 1.02545 6.19171 0 1 0 0.0447531 
2048 1 5.85844 1.17603 5.17753 0 0 -1 0.0574611 
2100 1 8.04912 6.92442 9.46459 0 0 -1 0.0505115 
2201 1 7.02823 0.820066 5.46246 0 0 0 0.0580235 
880 1 6.51257 0.415157 6.31892 0 1 0 0.0418505 
1710 1 8.01634 1.13668 5.60755 0 0 1 0.104858 
169 1 5.02432 5.90684 9.43194 0 0 -1 0.02477 
286 1 7.44968 1.15863 6.50579 0 1 0 0.0317897 
1310 1 6.52949 1.65106 5.90455 0 1 0 0.0981784 
1036 1 9.09619 1.05466 5.36256 0 0 1 0.014385 
1291 1 8.63212 0.722934 6.29409 0 1 0 0.040222 
2780 1 9.13512 4.37883 9.0528 0 1 -1 0.0371044 
2493 1 9.37675 1.45672 6.35021 0 0 0 0.000683864 
3579 2 0.495323 0.866856 8.22268 0 0 0 0.165645 
4048 2 0.750017 2.47207 5.56614 1 1 0 0.108293 
141 1 0.90026 1.87462 6.11793 0 0 0 0.0160987 
1527 1 0.195635 3.14801 5.80131 1 0 -1 0.11445 
154 1 1.2894 3.21555 5.58299 0 0 0 0.0423172 
3324 1 1.75749 2.34803 5.50341 1 1 0 0.0679091 
2008 1 9.61069 3.30178 9.04424 0 0 0 0.0400614 
1521 1 2.13736 3.08943 6.15036 0 0 0 0.0295674 
3488 2 9.33856 7.35463 8.61519 -1 0 -1 0.549041 
1131 1 2.89505 2.48013 5.97471 0 0 0 0.0450777 
1382 1 1.16315 7.97189 9.46387 0 0 0 0.0579846 
1069 1 4.5208 1.66251 6.06167 0 0 0 0.0219385 
248 1 4.62006 2.52717 5.29393 0 0 0 0.0324587 
83 1 3.89568 2.47404 6.15808 0 0 -1 0.0470462 
1425 1 3.48615 2.45047 5.13349 0 1 0 0.0218457 
3503 2 3.98956 3.17576 5.55284 0 0 1 0.0462819 
1801 1 5.14396 2.56037 6.36543 0 1 0 0.0333297 
3727 2 5.93763 2.13278 6.3473 0 1 -1 0.113296 
881 1 5.60461 2.998 5.37469 0 1 1 0.0225268 
2093 1 5.41305 2.01029 5.578 0 0 0 0.0828415 
1082 1 6.47193 2.72919 5.83623 0 0 -1 0.0650691 
1117 1 7.49287 2.22932 5.92945 0 0 0 0.095628 
2256 1 9.61589 7.48228 6.21155 0 0 0 0.0484029 
2097 1 8.76613 1.95358 5.63977 0 0 0 0.0140158 
3688 2 9.32273 2.59165 5.6029 0 0 2 0.0119939 
4301 2 8.32423 2.64054 5.98816 0 0 0 0.0649542 
941 1 0.744967 4.07506 5.80793 0 1 0 0.039466 
43 1 4.46974 7.84613 9.6361 0 0 -1 0.0371799 
1826 1 8.88825 8.21675 8.6879 0 0 -1 0.146802 
2731 1 0.216459 4.48027 7.31326 1 0 0 0.00536085 
3610 2 8.18531 0.146482 6.79172 0 0 0 0.0937864 
3747 2 1.9665 3.77176 5.56917 0 0 0 0.0628149 
389 1 1.65176 4.67436 5.78089 0 1 0 0.107588 
719 1 2.48511 4.23713 6.02818 0 0 1 0.0371388 
1321 1 1.5235 3.87705 6.47446 0 0 0 0.038073 
1477 1 3.14317 3.45668 5.79943 0 1 0 0.0259837 
2068 1 8.34478 0.227247 5.28128 0 0 0 0.0226572 
1924 1 4.65348 3.44927 6.00615 0 0 0 0.0390335 
341 1 3.97228 4.05711 5.4752 0 1 0 0.0191098 
4042 2 3.84289 3.59027 6.41026 0 1 1 0.0193684 
4010 2 2.58566 2.56919 9.46406 0 0 -1 0.00584963 
1074 1 5.11121 4.36757 5.77551 0 0 0 0.0439137 
4088 2 6.1276 4.45071 5.96322 1 0 -1 0.069759 
1136 1 5.89043 4.08727 5.15675 0 0 0 0.0360057 
1565 1 5.67347 3.61897 6.19022 0 0 -2 0.024604 
127 1 7.69881 3.30831 5.7525 0 0 0 0.0106371 
4117 2 6.33573 3.28809 5.16022 0 0 0 0.0753488 
1819 1 6.76278 3.76902 5.79517 0 0 0 0.00126678 
3970 2 7.3987 4.29305 5.43261 0 1 -1 0.0295137 