ITEM: TIMESTEP
4800
ITEM: NUMBER OF ATOMS
4320
ITEM: BOX BOUNDS xy xz yz pp pp pp 
0 19.3293 0.01931
0 19.31 0
0 9.655 0
ITEM: ATOMS id type x y z ix iy iz msd_nonAffine 
3378 1 1.1355 0.58906 0.296678 1 1 1 0.015599 
486 1 1.45557 0.706879 1.26108 0 1 1 0.0220689 
979 1 0.105399 0.934385 0.90622 0 1 0 0.0289488 
332 1 0.88267 1.60677 0.860038 0 1 0 0.0365421 
964 1 2.19829 0.771971 0.345445 0 1 1 0.0243376 
790 1 2.4731 0.264035 1.29821 0 1 0 0.00633853 
3697 2 1.69441 1.56189 0.686574 1 1 1 0.0913232 
135 1 2.78313 1.39846 0.994483 0 1 1 0.0190815 
1553 1 4.41117 0.633477 0.575623 0 0 0 0.00930815 
4065 2 3.86401 1.36754 0.556385 1 1 1 0.0142198 
1198 1 3.36803 0.573224 0.679008 0 0 1 0.0442762 
868 1 3.80461 1.17604 1.41638 0 1 0 0.0205388 
3422 1 4.43206 0.276172 1.68146 1 1 0 0.0463455 
1493 1 4.9009 1.33039 1.24651 0 1 1 0.00887466 
4074 2 5.10793 0.455466 1.00653 0 1 1 0.0295328 
3203 1 5.43837 1.03891 0.406691 1 0 0 0.0209333 
1264 1 6.10168 1.34169 1.21355 0 1 0 0.0311883 
376 1 6.00387 0.299902 0.862286 0 1 0 0.00279816 
3758 2 6.32832 0.7097 1.74313 0 0 1 0.0607163 
663 1 6.9964 0.701591 1.09924 0 0 0 0.0263716 
963 1 6.57565 1.23107 0.249275 0 1 1 0.0394513 
4222 2 6.69195 0.345458 0.247575 1 0 -1 0.00170951 
3797 2 7.77106 0.243527 0.943938 0 1 -1 0.0132166 
1944 1 3.43983 9.58775 2.17556 0 0 0 0.0336692 
2154 1 7.90486 1.00327 1.44527 0 0 1 0.0073036 
4078 2 8.14913 1.22062 0.512737 0 1 0 0.163894 
1783 1 9.5236 0.500429 1.05529 0 1 0 0.0397637 
1177 1 8.88652 1.38622 0.994656 0 0 1 0.0528431 
2805 1 8.48609 0.510968 0.674962 1 1 1 0.0155715 
29 1 7.14814 5.26297 0.0095954 0 0 0 0.0139028 
2711 1 2.37312 1.85084 0.111074 1 1 1 0.00807719 
205 1 3.23586 9.65222 3.27221 0 0 0 0.023781 
3814 2 8.96277 3.03741 0.10468 -1 0 2 0.0264892 
2926 1 1.56889 2.46209 0.538625 1 1 1 0.0126192 
2794 1 0.324917 2.61052 0.945175 1 0 0 0.0485784 
3597 2 0.975446 3.2793 1.485 0 1 0 0.123432 
2380 1 4.35031 9.46416 0.200805 0 0 0 0.048145 
885 1 2.56266 2.55841 0.956652 0 1 1 0.0115777 
187 1 2.11717 3.32333 0.171357 0 0 0 0.0109433 
512 1 1.70768 3.35598 1.12727 0 0 0 0.042278 
3535 2 3.28499 2.90889 1.1782 0 1 0 0.0505074 
3493 2 6.36625 4.45777 0.103357 0 0 -1 0.0488491 
3224 1 4.62523 1.79526 0.379832 1 1 0 0.0218663 
1822 1 3.61764 2.1787 0.919857 0 1 0 0.0093236 
1031 1 4.60186 2.36083 1.27383 0 0 0 0.107753 
3604 2 4.20158 2.46573 0.271957 0 0 0 0.0395242 
4308 2 4.3697 1.79827 1.83165 0 0 1 0.0722129 
640 1 4.93648 2.94737 0.284466 0 0 1 0.0137706 
1704 1 6.05806 2.97924 0.215939 0 0 1 0.00749976 
3626 2 5.91379 1.76091 0.200887 0 0 0 0.0297979 
100 1 5.5727 3.10093 1.22599 0 0 0 0.00753193 
951 1 5.5232 2.11932 0.834927 0 1 1 0.02244 
1055 1 7.47934 1.6765 0.795663 0 0 0 0.0146225 
3784 2 6.84393 1.57103 1.42957 0 0 -1 0.042475 
629 1 6.63224 2.25797 0.786201 0 0 0 0.0338905 
1563 1 7.42915 2.74167 1.47917 0 0 0 0.0817938 
576 1 8.13879 3.28332 0.539908 0 0 0 0.0254287 
1632 1 8.24783 2.01311 1.56741 0 0 0 0.0276259 
3737 2 7.99979 2.41603 0.865057 1 1 0 0.0973861 
3175 1 9.22369 2.39863 0.648605 1 0 1 0.0127713 
1395 1 8.52742 3.00179 1.52856 0 1 1 0.0223263 
2451 1 8.88018 8.76468 4.43915 0 0 1 0.0308159 
431 1 0.466502 2.41215 4.77246 0 1 0 0.00293389 
3383 1 0.915582 3.34772 0.41759 1 0 1 0.0406152 
547 1 1.01617 4.12177 1.36286 0 0 1 0.0312474 
2997 1 0.321209 4.19518 0.37199 1 0 0 0.0182695 
72 1 1.44098 4.16487 0.383117 0 0 0 0.026112 
3903 2 9.09649 0.483388 0.160988 0 1 -1 0.0357781 
4118 2 5.9225 9.37739 1.95602 1 1 1 0.0729953 
2007 1 1.91135 4.52035 1.30174 1 0 0 0.0150921 
768 1 1.67691 3.80903 4.72799 0 1 0 0.00970721 
3150 1 2.76997 3.6513 1.13196 1 0 0 0.0388644 
1485 1 4.03563 3.1468 0.778158 0 1 1 0.0180271 
380 1 4.62282 3.95109 0.195269 0 1 1 0.0129439 
34 1 3.67167 4.1863 0.706451 0 0 0 0.0232915 
1056 1 4.6218 3.86546 1.21979 0 0 0 0.00712642 
965 1 3.72533 3.66816 1.69112 0 0 1 0.0461809 
3915 2 5.34249 3.80315 0.690964 0 1 1 0.00866313 
555 1 5.40394 4.65672 0.653275 0 0 0 0.00574615 
1214 1 6.20646 3.95511 0.827913 0 0 1 0.0423497 
910 1 5.51948 3.93877 1.80465 0 1 0 0.10103 
810 1 7.01618 3.31981 0.639066 0 1 1 0.00810338 
3092 1 3.37978 9.25282 4.70527 1 0 0 0.000936311 
981 1 7.30739 4.28707 0.307532 0 1 0 0.00194086 
3546 2 6.95877 4.02949 1.13597 0 0 1 0.0158662 
2081 1 7.72346 3.80229 1.39625 0 0 0 0.0177233 
2050 1 6.55686 3.44395 1.6176 0 0 0 0.0180939 
1216 1 8.93119 9.28904 3.30479 0 0 0 0.0968401 
639 1 9.17028 3.46431 0.874057 0 0 0 0.0314673 
1153 1 9.38812 4.60931 1.02574 0 0 0 0.00439867 
1946 1 8.3391 4.3041 0.616954 0 1 0 0.00332716 
3094 1 0.808678 4.99986 0.841071 1 0 0 0.0726325 
2010 1 1.1057 5.88756 0.457022 1 0 0 0.0214458 
3569 2 0.359157 6.40184 0.307636 0 0 2 0.0929271 
1260 1 8.49298 9.49061 1.04289 0 0 0 0.0998499 
571 1 1.27377 9.48877 0.571152 0 0 1 0.0103728 
4081 2 1.94735 6.08266 0.386491 1 1 0 0.0642757 
1976 1 1.7516 5.51028 1.2436 0 0 1 0.0453269 
2670 1 1.99949 5.21594 0.203071 1 0 1 0.0480943 
1042 1 2.64074 5.93445 1.02619 0 0 1 0.0467384 
1233 1 2.81897 4.90412 0.95104 0 0 1 0.0100537 
3764 2 0.214159 5.07068 2.47219 0 0 2 0.0188992 
3059 1 3.75428 4.79264 1.59018 1 0 0 0.0217629 
2654 1 4.36963 4.94578 0.560575 1 0 1 0.00201087 
138 1 3.84587 5.76103 0.927775 0 0 1 0.0159581 
3671 2 3.55956 5.03374 0.495083 0 0 1 0.0190304 
3034 1 5.05545 5.7305 0.988346 1 0 0 0.0308257 
3971 2 5.87361 5.42506 0.893396 0 0 0 0.0445303 
146 1 6.42574 5.9656 0.518825 0 0 0 0.0110784 
655 1 6.05664 6.06972 1.52519 0 0 0 0.0503598 
1319 1 5.5194 9.60707 2.82969 0 0 0 0.0803448 
2653 1 7.58301 4.8875 1.2065 0 0 1 0.0165954 
537 1 6.54214 4.91399 0.856914 0 0 0 0.00603669 
80 1 7.37784 5.8241 0.925305 0 0 -1 0.0180784 
4073 2 8.38216 6.05478 1.36029 0 0 0 0.119727 
3679 2 8.0561 5.16323 0.499683 0 1 2 0.00134502 
3412 1 1.98643 0.198411 3.17559 1 1 0 0.0245029 
4186 2 9.596 1.30741 1.5695 0 1 1 0.0781538 
3978 2 0.193576 7.77076 3.72266 0 0 0 0.0404012 
2497 1 8.84479 5.7444 0.736023 0 0 0 0.111366 
1215 1 8.603 5.0548 1.47691 0 0 1 0.00583741 
584 1 9.64228 1.43914 2.49312 0 0 0 0.091584 
1252 1 7.5505 0.647152 0.137186 0 1 1 0.0460074 
1077 1 0.770041 6.85863 0.983843 0 0 0 0.00896672 
17 1 1.47488 7.69803 1.16825 0 0 1 0.0077463 
1353 1 0.664207 0.59695 4.7054 0 1 0 0.0294189 
2250 1 1.70997 6.49374 1.12687 1 0 0 0.0704276 
2303 1 2.20961 7.71066 0.485138 1 1 0 0.0313265 
3731 2 2.362 7.77217 1.46831 0 0 0 0.0462532 
759 1 2.50588 6.74781 0.255726 0 0 1 0.00282127 
1830 1 2.6982 7.03353 1.22542 0 0 0 0.0345107 
1140 1 3.18646 7.5944 0.149262 0 0 0 0.0261506 
961 1 4.46676 6.46917 0.463993 0 1 1 0.0176656 
3878 2 3.23529 6.47395 0.701033 0 0 2 0.0129438 
543 1 3.81443 7.13525 0.823816 0 0 1 0.0542082 
580 1 5.41041 9.46835 0.224463 0 0 1 0.0455216 
985 1 5.55784 6.5673 0.635335 0 0 1 0.00385402 
270 1 4.89061 7.31418 0.827598 0 0 0 0.0868738 
1191 1 6.56506 7.90967 0.996476 0 0 0 0.0439599 
4287 2 5.90815 7.26467 0.921913 0 0 0 0.0785749 
1192 1 6.24527 5.69425 4.76948 0 0 1 0.0307659 
1963 1 5.65429 7.84275 0.336057 0 0 1 0.0177217 
3539 2 7.15545 6.52123 0.493902 0 0 1 0.0289798 
1101 1 8.01256 6.56424 0.726865 0 0 1 0.0624111 
1364 1 7.32316 7.37623 0.479983 0 0 0 0.0485676 
1222 1 6.6808 6.77913 1.20515 0 0 0 0.0651829 
1980 1 7.49036 7.38022 1.59547 0 0 0 0.23605 
201 1 2.6199 4.22766 0.214329 0 0 2 0.0191908 
2416 1 8.27239 7.51852 0.861162 0 0 1 0.0814952 
551 1 9.24856 6.68543 0.755058 0 0 0 0.0542025 
3889 2 7.48007 9.55169 1.08713 0 -1 1 0.0697471 
3107 1 2.96842 5.69258 0.100146 1 0 1 0.0138294 
646 1 0.813287 8.40779 0.535395 0 0 1 0.0139176 
3126 1 0.236934 9.09929 1.26231 1 0 1 0.0151542 
648 1 7.8855 3.70009 4.66524 0 0 0 0.00641001 
121 1 2.06812 8.5473 1.05821 0 0 0 0.0781417 
2833 1 2.76331 8.59513 0.279182 1 0 1 0.020664 
959 1 3.17289 8.05214 1.15012 0 0 0 0.0138493 
998 1 3.2197 9.16718 1.15425 0 0 1 0.00535481 
3124 1 9.55713 3.14918 1.90156 0 0 1 0.042933 
645 1 4.31819 8.07118 1.28566 0 0 1 0.0569725 
203 1 3.79876 8.61625 0.467949 0 0 1 0.0153824 
2214 1 6.54561 6.75716 4.75038 0 0 1 0.0133671 
228 1 5.37443 9.21734 1.2759 0 0 0 0.137568 
2263 1 4.92629 8.55148 0.589845 0 0 0 0.0425336 
1120 1 5.4851 7.97631 1.43401 0 0 0 0.105889 
3064 1 6.15965 8.7341 0.47478 1 0 0 0.0144161 
204 1 6.19949 8.69472 1.63222 0 0 0 0.181577 
305 1 0.134338 3.68722 1.27535 0 1 -1 0.0766966 
3629 2 7.42195 7.9984 1.05166 0 0 0 0.368962 
1613 1 7.09413 8.78024 1.06587 0 0 1 0.00875294 
2757 1 7.68123 9.38404 0.277283 0 0 0 0.0259019 
1141 1 4.99239 4.58581 4.7546 0 0 0 0.0108913 
2626 1 8.02035 8.53883 0.834392 0 0 0 0.1419 
1908 1 9.06301 8.30365 0.97507 0 0 0 0.0308571 
4241 2 9.37271 9.05183 0.668142 0 0 1 0.176172 
2165 1 9.39613 9.26316 1.47483 0 0 1 0.0334577 
1235 1 0.16796 0.0785117 2.67701 1 0 1 0.0160669 
1694 1 6.39622 7.02272 0.203163 0 0 1 0.00865281 
2551 1 0.607594 0.808704 1.85277 1 0 0 0.142347 
3279 1 1.01456 0.582999 2.88337 1 1 0 0.0343787 
597 1 1.41593 1.35245 2.3089 0 0 0 0.0748024 
993 1 0.589241 1.39329 3.28058 0 1 0 0.0102014 
78 1 0.324918 1.84255 1.72327 0 0 0 0.0883446 
697 1 2.40093 9.45247 1.76973 0 0 0 0.0194964 
3011 1 1.92891 1.75589 1.45581 1 0 0 0.122991 
2595 1 2.14353 0.585947 2.2544 0 0 0 0.0218346 
2565 1 1.65047 1.65413 3.2336 1 0 0 0.0885127 
1262 1 2.57544 1.41173 2.73387 0 1 0 0.0138158 
950 1 3.10803 0.788319 1.97448 0 1 0 0.0154391 
1238 1 3.04048 0.526849 3.06939 0 0 0 0.029989 
4130 2 4.03776 0.828144 2.22273 0 0 -1 0.00882093 
3430 1 4.76667 1.28384 2.36923 1 1 1 0.0383552 
3272 1 4.09082 0.922618 3.12148 1 1 0 0.00797781 
416 1 4.93421 0.429208 2.77863 0 1 1 0.016806 
1875 1 5.43186 0.662119 1.87484 0 1 1 0.0361155 
3905 2 5.56149 1.06119 2.71822 1 1 0 0.0270217 
2405 1 6.30834 1.34471 2.27492 0 1 0 0.055832 
27 1 6.05575 0.353413 2.70285 0 1 0 0.0490437 
2689 1 6.20284 1.2033 3.37544 1 0 0 0.0336078 
3459 2 7.03908 1.40838 2.77058 0 0 0 0.0649188 
1032 1 7.0718 0.653817 2.14321 0 0 0 0.0278011 
820 1 7.9278 1.17954 2.58311 0 1 0 0.0381891 
626 1 1.41405 6.95096 0.178669 0 0 0 0.0298064 
1863 1 8.80908 1.04902 1.91223 0 1 0 0.00592836 
1231 1 9.07042 0.409477 2.68231 0 0 1 0.0091949 
3639 2 8.78664 1.23124 2.79913 0 0 1 0.0139604 
758 1 0.167802 4.87984 4.17885 0 0 0 0.00358609 
89 1 1.13469 2.40355 1.52387 0 0 -1 0.0648671 
4236 2 0.128559 1.79296 2.63854 1 0 0 0.0238759 
1234 1 0.313423 2.89636 1.94774 0 0 0 0.0977465 
2910 1 0.916406 2.15207 2.54128 1 0 1 0.232785 
4068 2 0.791538 3.09615 2.70977 1 0 -1 0.0444537 
1647 1 1.49789 3.14657 2.19311 0 0 0 0.0161778 
787 1 7.5418 4.73669 4.79321 0 0 0 0.0108243 
288 1 2.83478 3.07018 1.91291 0 1 0 0.105558 
3586 2 2.0656 2.72569 1.62811 0 0 1 0.0863694 
636 1 2.06676 2.36442 2.42024 0 0 0 0.0173682 
3377 1 3.08484 2.47436 2.71559 1 1 1 0.0932411 
3319 1 2.92127 1.96048 1.81607 1 1 0 0.0274713 
3952 2 4.4547 1.68353 3.07214 1 1 0 0.00657416 
1123 1 3.75696 1.62479 2.45 0 0 0 0.00591074 
538 1 3.76005 2.60915 1.88263 0 0 0 0.0265353 
610 1 4.64015 2.30675 2.54502 0 0 0 0.0278234 
4097 2 4.90142 2.98519 2.93704 0 0 1 0.0507073 
527 1 5.41787 1.99951 1.84249 0 0 0 0.00880166 
427 1 6.36444 2.35028 1.76885 0 1 0 0.021716 
699 1 5.60085 1.95511 2.89091 0 0 1 0.0282994 
1026 1 5.75143 2.88504 2.39842 0 0 0 0.0229794 
354 1 7.30902 1.86172 2.08663 0 1 0 0.0176108 
4141 2 7.90894 2.58757 2.21751 0 2 0 0.0459801 
2060 1 6.58906 2.14964 2.93285 0 0 0 0.0122867 
753 1 7.10531 3.03753 2.41634 0 0 1 0.0147604 
2422 1 7.67837 2.2784 2.97851 0 1 1 0.0426466 
1250 1 9.34781 2.1258 1.75489 0 1 0 0.0310761 
706 1 8.60313 2.01827 2.51831 0 0 0 0.0208527 
2302 1 9.45718 5.36811 4.66016 0 0 0 0.0225848 
3921 2 8.82148 2.83725 2.40783 0 1 -1 0.0565015 
1089 1 7.13249 0.0396301 4.34543 0 0 0 0.0443824 
1218 1 0.158988 4.70638 1.59234 0 0 2 0.0137062 
1294 1 0.617775 3.85714 2.25204 0 1 0 0.00619516 
589 1 0.721595 4.64748 3.11112 0 0 0 0.0135484 
2736 1 0.242357 3.67796 3.15134 1 0 0 0.00748966 
402 1 1.28615 3.71426 3.09383 0 0 0 0.0358187 
3556 2 2.18304 3.61601 1.91434 0 1 1 0.141644 
613 1 2.27821 3.27519 2.84816 0 0 -1 0.130272 
2897 1 1.8134 4.20987 2.33833 1 1 1 0.0316015 
2002 1 2.61517 4.60379 3.01328 1 0 -1 0.0020417 
256 1 2.81815 4.36799 1.87946 0 0 0 0.0213714 
1433 1 4.08597 3.21835 2.66991 0 1 0 0.0335488 
3153 1 3.24341 3.83692 2.70727 1 0 1 0.0214172 
1288 1 4.52591 4.07945 2.30384 0 1 0 0.118413 
1181 1 4.83935 3.1412 1.98905 0 0 0 0.0668822 
3295 1 5.27305 3.72062 2.99819 1 1 0 0.0399219 
2213 1 5.32043 4.63694 2.47968 0 0 1 0.030492 
2427 1 6.27109 3.95293 2.50418 0 1 0 0.00892807 
4235 2 7.74526 3.20197 3.21133 1 0 -1 0.0107006 
649 1 6.75164 4.48599 1.81052 0 0 1 0.00145328 
3508 2 7.26518 3.87643 2.13311 0 1 1 0.01461 
1639 1 7.81391 4.63292 2.15596 0 0 0 0.0160673 
1277 1 7.28814 3.90024 2.99944 0 0 -1 0.0357214 
1536 1 8.08783 3.45287 2.41686 0 0 0 0.0252254 
3869 2 8.23128 4.21801 2.85668 0 0 -1 0.0226075 
533 1 8.70815 4.01016 1.72471 0 0 0 0.00483259 
1158 1 9.0322 3.67039 2.68103 0 0 0 0.00473495 
1035 1 8.86154 4.72183 2.49594 0 0 1 0.0136294 
1347 1 0.973092 6.16023 1.78112 0 1 -1 0.0167591 
946 1 7.44366 2.48315 0.154544 0 1 1 0.0411643 
3095 1 1.13912 5.02823 2.01744 1 0 0 0.00254996 
829 1 0.794601 5.88922 2.7366 0 0 0 0.0292769 
3608 2 1.63068 5.91598 2.45678 0 0 0 0.0177392 
119 1 1.55273 5.1204 2.99205 0 0 1 0.0214958 
118 1 2.14767 5.15551 2.18571 0 0 0 0.00416967 
99 1 2.25188 5.95208 3.05794 0 0 0 0.00933563 
633 1 2.36433 6.22911 2.02108 0 0 0 0.0140409 
3532 2 2.77708 5.38831 2.74337 0 1 0 0.00507468 
86 1 3.07033 5.46159 1.85749 0 0 0 0.00462733 
1004 1 3.50156 4.86235 2.70482 0 0 1 0.018958 
1994 1 3.98018 5.7202 2.16898 0 0 0 0.0470325 
64 1 4.48924 5.14822 2.87463 0 0 -1 0.0119134 
875 1 3.26682 6.16768 2.70107 0 1 1 0.00195681 
157 1 4.51841 6.21761 2.94248 0 0 1 0.0107311 
3520 2 3.8293 5.66641 3.12173 0 0 0 0.00943106 
1139 1 4.83109 4.9661 1.55576 0 0 0 0.0100595 
3037 1 5.08074 5.8736 2.12453 1 0 0 0.00929392 
525 1 5.84021 5.0459 1.69026 0 0 0 0.0186159 
4053 2 6.18131 4.79544 2.4114 0 0 -1 0.0228715 
827 1 6.16876 5.65211 2.60253 0 0 0 0.00962975 
3575 2 6.39775 6.4345 3.07455 0 1 0 0.00797103 
1083 1 7.90795 4.9534 3.12237 0 0 0 0.00167553 
662 1 7.01263 5.50709 1.90008 0 0 1 0.0935989 
635 1 6.93892 4.94418 2.78455 0 0 0 0.0596874 
579 1 7.21604 5.93546 2.92462 0 0 0 0.110425 
1628 1 8.14597 5.62135 2.21613 0 0 0 0.0773958 
3475 2 8.11347 5.77443 3.16002 0 0 -1 0.143716 
724 1 3.97275 9.18177 3.89916 0 0 0 0.0909408 
1040 1 9.14586 6.05911 1.7283 0 0 1 0.0734305 
1362 1 8.57822 8.92961 0.127519 0 0 0 0.0197575 
1156 1 8.96649 5.69597 2.89273 0 0 0 0.0738944 
2468 1 0.358828 6.86143 2.7157 1 0 0 0.00736592 
3347 1 0.89455 7.24666 1.94354 1 0 0 0.00182417 
2790 1 1.48476 6.70748 2.79303 1 0 -1 0.00826237 
273 1 1.65188 7.68831 3.06964 0 0 -1 0.0114615 
3072 1 0.585271 7.82155 2.87813 1 0 0 0.0109822 
3920 2 1.31239 7.93917 2.3508 1 0 0 0.00701499 
564 1 2.48754 7.06371 2.94036 0 0 0 0.00350701 
770 1 1.97222 7.24474 1.99604 0 0 1 0.0255065 
4203 2 2.40167 8.06874 2.89998 0 0 0 0.0480077 
559 1 2.92454 7.84452 2.16887 0 0 0 0.00262575 
3827 2 2.97459 6.88566 2.16586 0 1 1 0.0240502 
3256 1 4.47586 6.54611 1.57903 1 0 0 0.00488544 
3257 1 3.38329 6.44605 1.61011 1 0 0 0.0109408 
3741 2 4.76348 7.46503 1.73756 0 -1 2 0.0992485 
2990 1 3.72923 7.35844 1.82671 1 0 0 0.04052 
3855 2 3.92025 6.61285 2.30687 0 0 -1 0.0258041 
895 1 4.62357 7.10048 2.50593 0 0 1 0.0143634 
1530 1 3.63996 7.11846 2.95266 0 0 1 0.0198021 
3638 2 3.73119 7.96356 2.57388 0 0 0 0.00267716 
126 1 5.47937 7.72537 2.41278 0 0 0 0.0308541 
832 1 5.54134 6.94856 1.65497 0 0 0 0.0714507 
556 1 5.58291 6.58398 2.79802 0 0 0 0.0285565 
224 1 6.56684 6.55174 2.26229 0 0 0 0.0400922 
1602 1 6.38085 7.5485 1.92278 0 0 0 0.0515628 
1410 1 6.26039 7.35215 2.99502 0 0 0 0.0206606 
1068 1 7.47129 6.41785 1.83032 0 0 0 0.0974701 
1160 1 7.24324 7.32763 2.59722 0 0 1 0.00880456 
3953 2 8.03647 7.41504 2.26673 0 0 -2 0.00203418 
1438 1 8.16601 6.63243 2.72973 0 0 0 0.00711105 
2840 1 9.2487 7.38296 1.52245 0 0 0 0.0575147 
1539 1 8.39555 6.85186 1.68629 0 0 0 0.0429965 
1652 1 8.71814 7.70078 2.62291 0 0 1 0.0105696 
1388 1 9.17052 6.80021 2.54074 0 0 1 0.00717494 
2000 1 7.96656 9.42651 2.92613 0 0 0 0.0559884 
3547 2 8.65368 7.07602 3.23411 -1 1 0 0.00136135 
2566 1 1.33243 9.16093 1.55494 1 0 0 0.0716318 
18 1 0.669497 8.26623 1.82208 0 0 0 0.00883442 
4174 2 0.411952 9.06159 3.02475 1 0 0 0.029371 
742 1 1.11186 8.74346 2.60899 0 0 1 0.0112871 
70 1 1.76239 8.78667 0.0348861 0 0 0 0.0149503 
3522 2 0.0864471 1.79683 0.818504 0 0 0 0.0679976 
136 1 2.01817 8.37919 2.12667 0 0 0 0.00949323 
3964 2 1.91996 9.24568 2.5804 0 0 0 0.0201751 
4284 2 2.76742 8.59944 1.72367 0 0 2 0.0164136 
2635 1 2.78396 8.81758 2.68862 1 0 0 0.015736 
665 1 5.81792 8.3994 3.29172 0 0 1 0.0218307 
3973 2 4.76011 8.75723 1.7097 0 0 -1 0.153936 
144 1 3.65337 8.6066 1.93828 0 0 0 0.0274552 
644 1 4.51814 8.10802 2.29846 0 0 1 0.0560679 
3269 1 3.82496 8.81403 2.94787 1 0 0 0.00366058 
774 1 4.47395 9.41224 2.34407 0 0 0 0.051297 
3815 2 5.05451 8.19902 2.9875 0 1 0 0.0401661 
307 1 5.36747 8.72872 2.31484 0 0 0 0.042583 
3583 2 6.13915 8.1967 2.41635 -1 0 1 0.168551 
1016 1 6.35542 9.06361 2.63918 0 0 0 0.0699741 
12 1 0.0859376 7.7721 1.1274 0 0 0 0.00330485 
1412 1 8.36517 0.0973127 1.6901 0 1 0 0.0359615 
1752 1 7.82456 8.32201 2.79863 0 0 0 0.0303697 
1832 1 7.13033 8.24217 1.99567 0 0 0 0.149274 
1442 1 7.79601 9.04153 1.91643 0 0 0 0.0380612 
4279 2 7.2037 8.99215 2.66096 1 0 0 0.0279023 
1529 1 6.81618 8.20616 3.22681 0 0 0 0.0859157 
2447 1 8.66101 8.30988 3.51254 0 0 0 0.0312033 
1134 1 8.27837 8.0625 1.75812 0 0 1 0.0187943 
4223 2 8.57758 8.8919 1.60681 1 0 1 0.0719395 
1142 1 8.66483 8.7863 2.45132 0 0 1 0.0991265 
3526 2 9.27441 8.33262 2.89961 -1 0 0 0.0278249 
751 1 9.44928 8.31005 2.01541 0 0 1 0.0280023 
738 1 9.6286 9.27041 2.52512 0 0 0 0.0227527 
107 1 1.3534 0.868262 3.85989 0 0 0 0.00405589 
412 1 0.24563 1.47007 4.26171 0 1 1 0.0283069 
516 1 0.40551 7.46137 0.200664 0 0 0 0.0129137 
3410 1 2.47238 0.954006 3.86097 1 1 0 0.00831963 
3554 2 3.45515 4.38758 4.77696 0 1 2 0.0182272 
4194 2 4.61075 0.470005 3.62991 1 1 1 0.0239143 
401 1 3.61049 0.707857 3.99375 0 1 0 0.0145736 
627 1 4.69459 0.682172 4.52045 0 0 0 0.0162471 
355 1 4.20654 1.59343 4.05551 0 1 0 0.0308081 
1504 1 3.1957 1.42683 4.73047 0 1 0 0.0378077 
333 1 2.79313 0.469856 4.73343 0 1 0 0.0542019 
904 1 5.11277 1.22704 3.61408 0 1 2 0.088931 
2399 1 4.23311 9.37947 1.33689 0 0 0 0.0834866 
4038 2 5.54581 0.486659 3.41425 0 1 0 0.0165081 
2644 1 0.862835 9.00734 4.65982 1 0 1 0.0182981 
3143 1 5.7971 0.688119 4.22119 1 0 0 0.044055 
383 1 7.00448 0.493498 3.27438 0 1 1 0.0477679 
1805 1 7.78554 0.980686 4.38985 0 1 -1 0.0400302 
1326 1 6.72844 1.16839 4.27702 0 1 -1 0.0116988 
1304 1 7.43797 1.4313 3.49544 0 1 0 0.0810728 
1722 1 7.81917 0.0720649 2.67884 0 0 1 0.0965979 
730 1 5.93232 9.32208 3.77348 0 0 1 0.0447732 
2177 1 8.31445 0.723027 3.44097 0 0 0 0.0169745 
1104 1 8.39222 2.00583 0.233642 0 0 0 0.0613038 
1557 1 9.22135 1.19138 3.60933 0 0 0 0.0335445 
1227 1 8.82761 0.731911 4.42465 0 0 1 0.00433302 
1784 1 9.0213 7.51534 0.024267 0 0 0 0.0550195 
518 1 1.46544 2.7703 4.61196 0 0 0 0.00539771 
3659 2 0.320606 2.08472 3.70122 1 1 -1 0.0466138 
814 1 1.15616 1.96438 4.04877 0 1 0 0.0206262 
2675 1 0.646395 2.98416 3.92989 1 0 1 0.00530064 
4184 2 2.5852 3.83453 3.36123 1 1 -1 0.85109 
2537 1 1.43787 2.66996 3.38024 1 0 -1 0.197498 
1396 1 2.21606 1.89568 4.47201 0 1 0 0.0182197 
932 1 2.44086 2.28493 3.47043 0 1 1 0.0500273 
3340 1 3.20781 2.50707 4.25902 1 1 0 0.0175083 
151 1 3.31619 1.53666 3.46461 0 0 0 0.0186682 
607 1 3.92304 2.43587 3.34805 0 0 0 0.0069556 
778 1 4.26356 2.55304 4.43342 0 1 0 0.00620025 
185 1 5.15286 1.70745 4.55387 0 0 1 0.00531647 
2024 1 5.3346 2.76356 4.40304 0 0 -1 0.00395804 
1736 1 4.96932 2.24796 3.6214 0 0 1 0.0202755 
1721 1 5.74606 2.90224 3.43293 0 0 0 0.0128991 
909 1 5.94167 2.0292 3.94235 0 1 0 0.0267336 
709 1 6.32826 3.14293 4.33048 0 0 0 0.00372386 
1878 1 7.09387 9.18605 3.43604 0 0 1 0.00456564 
1566 1 6.85744 3.04256 3.39832 0 0 0 0.0212854 
3854 2 7.88526 1.87917 4.13498 1 0 -2 0.0697168 
215 1 6.9484 2.19831 4.00787 0 0 0 0.0205043 
2149 1 7.78526 2.79052 3.97563 0 0 0 0.0626662 
3226 1 8.12799 9.47409 4.01315 1 0 0 0.0200461 
517 1 5.65898 8.47082 4.51332 0 0 0 0.00351477 
1916 1 8.42459 1.85088 3.54708 0 1 1 0.0614172 
3083 1 0.097869 2.63562 3.06219 1 0 0 0.0276092 
3096 1 1.30994 9.51356 3.17359 1 0 1 0.0101231 
1624 1 8.6646 2.90994 3.28283 0 0 -1 0.00828977 
3044 1 8.73675 1.69685 4.58452 1 0 0 0.107384 
1678 1 9.35142 2.30582 3.77672 0 0 0 0.0560367 
3717 2 8.58277 2.43059 4.17233 0 1 1 0.0499754 
1667 1 9.41627 2.61807 4.7762 0 0 0 0.0806774 
3993 2 1.43361 3.36185 3.97134 0 0 1 0.0362082 
2733 1 0.878871 4.08568 4.03255 1 0 1 0.0174104 
198 1 2.32859 3.17781 4.03206 0 0 1 0.16045 
1728 1 1.86449 4.33546 3.6762 1 0 1 0.0234885 
194 1 2.00199 4.79273 4.62871 0 0 1 0.036253 
487 1 4.81891 8.95037 3.29089 0 0 0 0.0371629 
301 1 3.2098 4.31943 3.9104 0 1 0 0.00886112 
710 1 4.76936 8.38208 4.09002 0 0 0 0.0250319 
1645 1 3.54528 3.38933 4.66226 0 0 0 0.00480889 
3155 1 4.15673 4.21906 3.21824 1 0 1 0.00183322 
1404 1 4.47463 3.2467 3.64585 0 1 1 0.0344217 
2569 1 3.25056 3.35682 3.57144 1 0 0 0.0592437 
2989 1 4.25129 4.14378 4.19706 1 0 0 0.0110056 
3320 1 5.06028 9.41273 4.36343 1 0 0 0.0320759 
335 1 5.00939 4.71249 3.67056 0 1 -1 0.00959702 
2553 1 5.4704 3.79569 4.12036 0 0 -1 0.0252317 
1874 1 6.31987 3.85959 3.50544 0 1 0 0.0618911 
33 1 6.11142 4.60768 4.30507 0 0 -1 0.0281231 
3694 2 9.24078 0.316013 3.49938 0 1 1 0.0102577 
3309 1 0.0680108 5.85694 1.04287 1 0 0 0.0383215 
2105 1 6.85337 3.95882 4.61543 0 0 0 0.0214843 
3864 2 7.18476 3.68683 3.85628 0 1 -1 0.0786448 
1532 1 7.22266 4.58739 3.80295 0 0 0 0.0110252 
1143 1 8.11769 3.9041 3.66981 0 0 1 0.00859296 
977 1 0.266582 5.88708 4.08589 0 1 1 0.00912417 
1193 1 8.77757 3.30811 4.30331 0 0 1 0.0200967 
3006 1 8.57206 4.47569 4.55212 1 0 0 0.0125835 
3780 2 9.02099 3.8589 3.71022 0 0 2 0.0333968 
821 1 3.15628 8.00312 3.23423 0 0 0 0.0130451 
2528 1 8.89843 4.69698 3.54327 0 0 0 0.00913367 
4233 2 3.76163 0.0616391 3.4839 1 1 1 0.00474004 
4253 2 0.561785 5.43423 3.4504 1 0 0 0.0133813 
3839 2 1.11559 5.83679 4.46143 0 1 1 0.0359265 
2727 1 1.16117 5.13034 3.97866 1 0 0 0.018279 
40 1 1.28647 6.06026 3.6289 0 0 0 0.0220464 
3947 2 3.26917 7.63315 4.67337 1 0 1 0.0331773 
4122 2 0.529996 6.48634 3.51426 1 -1 0 0.0741541 
3902 2 2.50313 4.92513 3.87308 1 0 1 0.078184 
521 1 2.10883 5.6428 4.0929 0 0 0 0.00940536 
3640 2 2.79969 6.53654 3.55099 0 -1 1 0.014257 
221 1 2.9402 6.20459 4.3877 0 0 0 0.0187196 
1848 1 3.01524 5.16829 4.57983 0 1 -1 0.00186752 
1653 1 3.08523 5.48205 3.54696 0 0 0 0.00238575 
718 1 4.43636 6.11727 4.74175 0 0 0 0.0415416 
3477 2 3.61176 5.76531 4.32134 0 -1 -2 0.0109559 
1392 1 4.01014 5.08535 3.83501 0 1 1 0.00906597 
3523 2 4.59783 5.71888 3.75828 0 0 1 0.0161202 
1048 1 3.7788 6.30054 3.7007 0 0 0 0.00707447 
3141 1 5.32013 5.72765 3.27992 1 0 0 0.00186399 
1654 1 5.38496 5.47052 4.30585 0 0 0 0.0127292 
172 1 5.97593 4.87853 3.30023 0 0 0 0.0242671 
600 1 2.84247 8.82755 3.84654 0 0 0 0.0401808 
3600 2 8.09707 5.91061 4.43407 0 0 0 0.0739563 
4159 2 6.92143 6.11706 4.29346 0 0 0 0.0314389 
1445 1 6.50198 5.6815 3.64718 0 0 1 0.0304997 
4100 2 6.8367 5.18971 4.39799 1 0 1 0.0107928 
2108 1 7.49731 5.57146 3.90232 0 0 0 0.0274676 
3798 2 8.07705 4.89761 4.04378 0 1 -1 0.00254674 
1095 1 8.83863 6.32845 4.64992 0 0 0 0.00425919 
2822 1 9.65084 8.70179 3.69857 0 0 0 0.0295237 
630 1 2.30759 9.39623 4.57325 0 0 0 0.09283 
2037 1 8.63189 5.61449 3.85256 0 0 -1 0.0230798 
1876 1 8.00827 6.43588 3.66736 0 0 0 0.0830103 
3426 1 0.695191 7.95265 4.45449 1 0 0 0.0791535 
3247 1 3.9146 0.0192468 2.56183 1 1 0 0.0127842 
3168 1 1.52661 7.41253 4.61956 1 0 0 0.00900598 
2119 1 0.816857 6.62465 4.59809 1 -1 1 0.00239379 
466 1 0.983961 7.18723 3.68678 0 0 1 0.0416938 
4240 2 1.40411 7.91958 3.85306 1 -1 0 0.0112754 
2929 1 7.70707 8.43764 3.90526 0 0 1 0.0492399 
2556 1 2.38653 7.86213 3.85243 1 0 1 0.00612848 
434 1 1.93727 6.88841 3.81584 0 0 0 0.0183219 
666 1 3.2354 7.19912 3.91531 0 0 0 0.0118527 
1244 1 4.25593 7.92047 3.31345 0 0 0 0.0214605 
140 1 9.53461 4.22751 4.25902 0 0 1 0.0150257 
534 1 4.2574 7.21758 4.24835 0 0 0 0.0170676 
3763 2 4.46512 6.9554 3.39311 1 0 1 0.0453955 
1349 1 7.23811 9.39474 4.43833 0 0 -1 0.063753 
430 1 5.22438 7.51439 3.4714 0 0 0 0.00798131 
1275 1 5.24584 7.42702 4.59779 0 0 0 0.0326929 
766 1 4.98359 6.47298 3.88956 0 0 0 0.0307773 
57 1 5.99209 6.55775 3.86128 0 0 0 0.00117041 
1988 1 6.27173 7.57123 4.02256 0 0 0 0.0786603 
1039 1 3.77332 8.2282 4.26688 0 0 1 0.102548 
23 1 7.64016 6.6595 4.53472 0 0 0 0.0623172 
3041 1 6.97739 6.8189 3.68606 1 0 -1 0.0672718 
1705 1 7.22531 7.59708 4.3452 0 0 1 0.15278 
177 1 7.91301 7.50573 3.36638 0 0 0 0.00456364 
2685 1 9.20624 6.49402 3.57242 0 0 0 0.0233626 
1453 1 8.70654 7.3306 4.09123 0 0 0 0.00837828 
2861 1 9.4094 7.59218 3.39316 0 0 0 0.00902677 
3071 1 6.61188 8.57285 4.16584 1 0 0 0.0139631 
4137 2 1.45897 9.38375 4.02175 1 1 1 0.0382759 
2169 1 0.849513 8.66488 3.66918 1 0 0 0.00412199 
818 1 0.494071 9.56399 2.255 0 0 0 0.0227664 
460 1 1.85392 0.0931128 4.25599 0 1 0 0.071521 
2995 1 1.80247 8.53375 4.38741 1 0 0 0.0161748 
465 1 1.94474 8.63044 3.28189 0 0 0 0.03757 
2532 1 0.654917 0.0958255 3.69069 1 0 0 0.0513139 
1554 1 3.14096 3.08113 0.287473 1 0 0 0.00363804 
541 1 6.79837 9.54534 1.70147 0 0 0 0.0300185 
3840 2 9.57643 5.11383 2.88606 0 0 0 0.0443632 
3976 2 4.12723 9.63167 3.21519 1 0 0 0.00229999 
3871 2 6.41701 7.83433 0.0603701 0 0 0 0.00724372 
303 1 9.58196 2.4688 2.76447 0 1 0 0.0468969 
1221 1 9.63271 5.22843 1.96591 0 0 1 0.0299902 
4165 2 9.63572 7.60373 2.35371 0 0 1 0.0199646 
519 1 6.70142 9.62093 0.500442 0 0 0 0.0268115 
43 1 4.50955 7.78456 0.0369027 0 0 0 0.0426269 
3612 2 6.3902 0.383613 4.80481 0 0 0 0.01044 
3304 1 2.49754 7.17941 4.70981 1 0 0 0.0602215 
3991 2 9.52882 6.06883 4.26724 0 1 1 0.0283248 
206 1 5.96745 5.31647 0.0141855 0 0 1 0.00471872 
2717 1 0.201552 5.49952 0.00164165 1 0 0 0.0853049 
3024 1 0.94545 0.686476 5.76843 1 1 0 0.00934526 
3558 2 0.29601 1.18543 6.00427 1 0 1 0.0118132 
1111 1 6.32697 2.17669 4.92324 0 0 0 0.0171082 
3463 2 2.15342 9.50826 9.52298 0 0 0 0.0414477 
4210 2 0.42405 4.24063 8.0626 1 0 0 0.248588 
1276 1 2.04729 0.67543 6.11785 0 0 -1 0.00327922 
4300 2 1.61742 1.33529 5.76169 0 1 0 0.00345006 
2933 1 2.47988 1.46823 5.58508 0 1 0 0.0125106 
3188 1 1.75739 0.772698 5.04323 1 0 0 0.000361277 
1764 1 3.06485 0.446741 5.77477 0 1 -1 0.0149871 
4273 2 4.20311 0.840184 5.78801 1 1 0 0.0441725 
1720 1 3.83962 0.584091 5.03529 0 0 0 0.0317383 
578 1 3.54432 1.50597 5.85266 0 0 0 0.00940112 
1590 1 9.54191 8.05432 7.3095 0 0 0 0.01061 
582 1 5.00292 0.875006 5.41041 0 0 0 0.0261534 
471 1 4.9224 0.3134 6.30332 0 1 1 0.0175838 
417 1 5.7227 1.02841 6.14429 0 1 0 0.00181792 
2048 1 5.88042 1.14178 5.09599 0 0 -1 0.0390257 
914 1 2.34295 0.0558522 8.28799 0 1 0 0.00262464 
2201 1 7.00343 0.821955 5.2201 0 0 0 0.0108253 
880 1 6.61869 0.470777 6.21476 0 1 0 0.0113273 
1710 1 8.01577 1.10448 5.40971 0 0 1 0.018342 
2082 1 7.70445 0.216507 5.91678 0 0 0 0.0117148 
286 1 7.47519 1.15064 6.40093 0 1 0 0.0072654 
1310 1 6.57284 1.61992 5.85945 0 1 0 0.0553527 
1036 1 9.20374 1.09494 5.35177 0 0 1 0.0064568 
1291 1 8.61216 0.743711 6.13094 0 1 0 0.00936839 
2191 1 9.61901 5.69788 6.07683 0 0 0 0.0175694 
2493 1 9.52506 1.49874 6.39182 0 0 0 0.0315159 
222 1 2.81841 8.33392 4.9017 0 0 0 0.00799536 
4048 2 0.929392 2.53855 5.48227 1 1 0 0.0280126 
141 1 0.91332 1.81318 5.98675 0 0 0 0.01657 
1527 1 0.264764 2.98915 5.82196 1 0 -1 0.0419264 
154 1 1.40501 3.26187 5.63437 0 0 0 0.0216204 
3324 1 1.71579 2.21004 5.45215 1 1 0 0.0573596 
2068 1 8.5144 0.224095 5.24796 0 0 0 0.00432461 
1521 1 2.29665 3.15317 6.29968 0 0 0 0.0397374 
2319 1 3.20133 1.16992 9.54092 0 0 -1 0.0171917 
1131 1 2.91154 2.38465 6.02148 0 0 0 0.0147471 
3610 2 8.18004 0.111175 6.78076 0 0 0 0.0816029 
1069 1 4.61497 1.71173 6.08572 0 0 0 0.00448739 
248 1 4.70254 2.48484 5.34734 0 0 0 0.0182526 
83 1 4.03029 2.68984 6.08966 0 0 -1 0.0356942 
1425 1 3.53785 2.3587 5.18647 0 1 0 0.00373862 
3503 2 4.01197 3.05645 5.23676 0 0 1 0.0230945 
1801 1 5.12489 2.56304 6.29143 0 1 0 0.0139605 
3727 2 6.02929 2.21715 6.29208 0 1 -1 0.131632 
881 1 5.68715 2.98454 5.43099 0 1 1 0.0132757 
2093 1 5.51499 1.98075 5.59895 0 0 0 0.0259762 
1082 1 6.66721 2.79634 5.75808 0 0 -1 0.0233393 
1117 1 7.68608 2.15529 5.89727 0 0 0 0.0277569 
1446 1 8.20856 2.57868 4.96808 0 1 0 0.0251411 
2097 1 8.79894 2.0427 5.63017 0 0 0 0.0101768 
3688 2 9.49233 2.65814 5.7377 0 0 2 0.0206595 
4301 2 8.30541 2.75172 5.9734 0 0 0 0.0218367 
941 1 0.651452 3.98295 5.96229 0 1 0 0.0990759 
621 1 6.61332 3.71092 9.45338 0 0 0 0.0111451 
1826 1 8.92582 8.40266 9.01794 0 0 -1 0.0350021 
550 1 4.33033 8.90947 4.98939 0 0 0 0.0244099 
632 1 4.02584 5.02164 4.88793 0 0 0 0.0254042 
3747 2 2.12961 3.65708 5.42095 0 0 0 0.00796568 
389 1 1.64714 4.55349 5.6199 0 1 0 0.0262944 
719 1 2.52509 4.15843 5.99225 0 0 1 0.0221173 
1321 1 1.57745 3.89006 6.44754 0 0 0 0.0115535 
1477 1 3.20228 3.40595 5.69802 0 1 0 0.00281101 
4230 2 8.84837 6.50969 9.64386 1 0 -1 0.0696028 
1924 1 4.78235 3.46611 5.87637 0 0 0 0.00791311 
341 1 4.01606 4.04679 5.39734 0 1 0 0.0129011 
4042 2 3.97941 3.55506 6.22401 0 1 1 0.0150847 
323 1 0.035686 1.18525 5.22265 0 1 0 0.0285751 
1074 1 5.15075 4.52442 5.82965 0 0 0 0.0128522 
4088 2 6.05889 4.3787 5.88078 1 0 -1 0.0499375 
1136 1 5.76828 3.94811 5.16108 0 0 0 0.0502093 
1565 1 5.6467 3.65559 6.2719 0 0 -2 0.0269018 
127 1 7.75604 3.35565 5.69453 0 0 0 0.0256698 
4117 2 6.45315 3.39494 5.15551 0 0 0 0.0302943 
1819 1 6.70925 3.84493 5.85999 0 0 0 0.00668872 
3970 2 7.35846 4.20113 5.41988 0 1 -1 0.0100171 
96 1 6.7361 4.89326 6.36574 0 0 0 0.015749 
1261 1 7.65632 4.15727 6.41018 0 0 0 0.0213383 