ITEM: TIMESTEP
62400
ITEM: NUMBER OF ATOMS
4320
ITEM: BOX BOUNDS xy xz yz pp pp pp 
0 19.561 0.25103
0 19.31 0
0 9.655 0
ITEM: ATOMS id type x y z ix iy iz msd_nonAffine 
3378 1 1.05575 0.628787 0.33605 1 1 1 0.0165378 
486 1 1.36077 0.625704 1.36507 0 1 1 0.0865475 
4129 2 5.21381 0.13915 4.68517 0 0 0 0.0704262 
332 1 0.980271 1.54704 0.951131 0 1 0 0.0126168 
964 1 2.09336 0.688845 0.476541 0 1 1 0.0467903 
187 1 1.98193 3.21786 0.177965 0 0 0 0.0207712 
3697 2 1.78562 1.63533 0.650327 1 1 1 0.108144 
135 1 2.75845 1.50037 0.816969 0 1 1 0.079005 
1553 1 4.27865 0.740047 0.495809 0 0 0 0.0396096 
4065 2 3.55766 1.31251 0.524827 1 1 1 0.0443968 
1198 1 3.30496 0.5553 0.883193 0 0 1 0.0930573 
868 1 3.6875 1.36922 1.40057 0 1 0 0.0277043 
3422 1 4.22365 0.294997 1.55668 1 1 0 0.0492715 
1493 1 4.70251 1.315 1.19579 0 1 1 0.0465047 
4074 2 5.04922 0.634503 0.835263 0 1 1 0.0357792 
3203 1 5.38124 1.10075 0.253627 1 0 0 0.0101179 
1264 1 5.94035 1.32834 1.10742 0 1 0 0.0448157 
376 1 5.92287 0.275602 0.903769 0 1 0 0.0156926 
3758 2 6.27212 0.596209 1.69142 0 0 1 0.0553273 
663 1 6.88757 0.743684 1.0693 0 0 0 0.0292856 
963 1 6.64293 1.28459 0.135327 0 1 1 0.00857987 
4222 2 6.57664 0.404165 0.269039 1 0 -1 0.0114298 
4236 2 0.118318 1.88095 2.65344 1 0 0 0.0336841 
305 1 0.148143 3.54448 1.27346 0 1 -1 0.0345972 
2154 1 7.75309 0.926638 1.58472 0 0 1 0.062256 
1218 1 0.320708 4.75819 1.63239 0 0 2 0.0223695 
1783 1 9.28239 0.505676 1.02767 0 1 0 0.0382469 
1177 1 8.74199 1.41793 0.861607 0 0 1 0.00146454 
2805 1 8.27965 0.470048 0.693012 1 1 1 0.036596 
3124 1 9.52487 3.04017 1.87966 0 0 1 0.0232145 
748 1 9.62181 7.93283 4.56187 0 0 0 0.0258552 
2644 1 0.850668 9.05114 4.71256 1 0 1 0.00761562 
3991 2 9.56937 5.97824 4.33675 0 1 1 0.050202 
2926 1 1.45681 2.43121 0.609924 1 1 1 0.0208626 
2794 1 0.431421 2.41886 1.01944 1 0 0 0.000449289 
3597 2 0.921968 3.15218 1.40768 0 1 0 0.0486773 
1526 1 9.58886 8.48788 0.14861 0 0 1 0.0180547 
885 1 2.50952 2.5673 0.87247 0 1 1 0.043372 
70 1 1.71957 8.79215 0.0673704 0 0 0 0.0109628 
512 1 1.76752 3.27258 1.21227 0 0 0 0.00970099 
3535 2 3.18677 3.01664 1.34307 0 1 0 0.0439911 
3694 2 9.36372 0.0633267 3.56791 0 1 1 0.105147 
3224 1 4.38616 1.86159 0.405065 1 1 0 0.0369848 
1822 1 3.50908 2.24707 0.938789 0 1 0 0.0535077 
1031 1 4.48762 2.46816 1.27071 0 0 0 0.108984 
3604 2 3.85424 2.73488 0.20568 0 0 0 0.0762982 
4308 2 4.30182 1.86556 1.77145 0 0 1 0.0463247 
640 1 4.70759 2.902 0.337771 0 0 1 0.119844 
1704 1 5.78263 2.978 0.242986 0 0 1 0.0668769 
648 1 7.77364 3.69417 4.79205 0 0 0 0.0259634 
100 1 5.37589 3.09039 1.19308 0 0 0 0.103104 
951 1 5.3817 2.08298 0.721475 0 1 1 0.07571 
1055 1 7.5989 1.77428 0.688765 0 0 0 0.0124601 
3784 2 6.89141 1.5743 1.22273 0 0 -1 0.0401373 
629 1 6.47284 2.24053 0.66214 0 0 0 0.0422569 
1563 1 7.26793 2.64435 1.36011 0 0 0 0.0646171 
576 1 8.16405 3.1318 0.539663 0 0 0 0.00836576 
1632 1 8.16986 1.9211 1.59444 0 0 0 0.000965839 
3737 2 8.31769 2.24798 0.864783 1 1 0 0.00845132 
3175 1 9.10058 2.38843 0.592708 1 0 1 0.0203759 
1395 1 8.34413 2.91846 1.53572 0 1 1 0.025348 
3107 1 2.8913 5.8224 0.0628624 1 0 1 0.0350339 
790 1 2.35186 0.149019 1.37414 0 1 0 0.0575388 
3383 1 0.909344 3.2566 0.567975 1 0 1 0.0034996 
547 1 1.11416 4.03408 1.43293 0 0 1 0.00713406 
2997 1 0.310492 4.10929 0.208414 1 0 0 0.103958 
72 1 1.48277 4.11662 0.344933 0 0 0 0.0347676 
4165 2 9.57574 7.61734 2.51831 0 0 1 0.0218536 
333 1 2.65012 0.545107 4.76873 0 1 0 0.0663627 
2007 1 1.94494 4.51707 1.22399 1 0 0 0.0195577 
3563 2 6.74997 9.47584 2.30196 0 0 0 1.00951 
3150 1 2.67973 3.78329 1.00455 1 0 0 0.025336 
1485 1 3.82396 3.23852 0.827114 0 1 1 0.0376778 
380 1 4.49937 3.94484 0.133789 0 1 1 0.00586412 
34 1 3.46127 4.21797 0.403668 0 0 0 0.0623124 
1056 1 4.51055 3.9036 1.15863 0 0 0 0.0495971 
965 1 3.63081 3.68289 1.71818 0 0 1 0.050579 
3915 2 5.22657 3.70588 0.492847 0 1 1 0.11385 
555 1 5.3046 4.65043 0.635806 0 0 0 0.0311429 
1214 1 6.02389 3.95498 0.777407 0 0 1 0.0797638 
910 1 5.38345 3.95197 1.78409 0 1 0 0.184578 
810 1 6.89889 3.30014 0.612024 0 1 1 0.030184 
2004 1 0.19128 0.151755 0.081212 1 0 1 0.0380103 
981 1 7.33859 4.27991 0.269028 0 1 0 0.000881265 
3546 2 6.86445 4.04274 1.08068 0 0 1 0.035619 
2081 1 7.58821 3.66787 1.37378 0 0 0 0.0290998 
2050 1 6.36226 3.39502 1.61356 0 0 0 0.0623503 
303 1 9.48263 2.50985 2.84241 0 1 0 0.0472454 
639 1 9.09709 3.43952 0.908238 0 0 0 0.00432235 
1153 1 9.3772 4.47383 1.18204 0 0 0 0.0472759 
1946 1 8.32181 4.19014 0.801759 0 1 0 0.0589844 
3094 1 0.945472 4.92361 0.7685 1 0 0 0.0588247 
2010 1 1.199 5.90124 0.422726 1 0 0 0.0303286 
3493 2 6.26152 4.61473 0.0751311 0 0 -1 0.0934137 
738 1 9.58129 9.3029 2.65614 0 0 0 0.0544258 
1944 1 3.46374 9.54457 2.24931 0 0 0 0.0160156 
4081 2 2.09391 6.08412 0.251451 1 1 0 0.151131 
1976 1 1.70766 5.60317 1.27967 0 0 1 0.02132 
2670 1 1.95488 5.10074 0.239689 1 0 1 0.0768753 
1042 1 2.61175 6.04137 1.0448 0 0 1 0.0151907 
1233 1 2.83608 4.94737 0.930451 0 0 1 0.00878742 
2736 1 0.0690037 3.69007 3.14554 1 0 0 0.0297656 
3059 1 3.68892 4.68141 1.43904 1 0 0 0.0542658 
2654 1 4.26906 4.89903 0.476907 1 0 1 0.0347131 
138 1 3.66449 5.62226 0.902692 0 0 1 0.0702524 
3671 2 3.47091 5.09191 0.296877 0 0 1 0.025522 
3034 1 5.00889 5.70894 1.04747 1 0 0 0.0189681 
3971 2 5.80774 5.49583 0.785313 0 0 0 0.016603 
146 1 6.59313 6.09736 0.226175 0 0 0 0.134149 
655 1 6.30119 5.84102 1.39105 0 0 0 0.252979 
23 1 7.43188 6.76498 4.38012 0 0 0 0.13152 
2653 1 7.53236 4.74279 1.18669 0 0 1 0.0274059 
537 1 6.54533 4.9724 0.795368 0 0 0 0.0128641 
80 1 7.24638 5.74412 0.935716 0 0 -1 0.0954052 
4073 2 7.8836 5.56997 1.48077 0 0 0 0.621538 
3679 2 7.84267 5.12591 0.504324 0 1 2 0.0958613 
3526 2 9.21417 8.36999 2.93915 -1 0 0 0.07687 
1353 1 0.662472 0.48755 4.71159 0 1 0 0.0141225 
516 1 0.384736 7.29037 0.124818 0 0 0 0.0351745 
2497 1 8.50985 5.86387 0.929182 0 0 0 0.027861 
1215 1 8.55666 5.01189 1.54264 0 0 1 0.0195663 
571 1 1.15314 9.53259 0.635924 0 0 1 0.0322587 
1081 1 9.74281 7.48338 0.671485 0 0 1 0.0659883 
1077 1 0.775695 6.80687 1.03024 0 0 0 0.00781475 
17 1 1.45714 7.69589 1.15596 0 0 1 0.00609537 
2105 1 6.77416 4.05706 4.6366 0 0 0 0.036469 
2250 1 1.76649 6.59507 1.1021 1 0 0 0.0534959 
2303 1 2.20812 7.87066 0.409738 1 1 0 0.0112359 
3731 2 2.30755 7.83801 1.41975 0 0 0 0.011736 
759 1 2.58114 6.80994 0.291897 0 0 1 0.012574 
1830 1 2.74523 7.10842 1.36689 0 0 0 0.0441422 
1252 1 7.41181 0.586463 0.143798 0 1 1 0.0251928 
961 1 4.31387 6.39538 0.605665 0 1 1 0.0694422 
3878 2 3.24515 6.53332 0.744326 0 0 2 0.00787483 
543 1 3.72906 7.28439 0.884367 0 0 1 0.0241689 
3412 1 1.91481 0.190043 3.2342 1 1 0 0.0150966 
985 1 5.68471 6.437 0.668734 0 0 1 0.0352127 
270 1 5.00439 7.2569 0.755793 0 0 0 0.148112 
1191 1 6.7748 7.87483 1.01224 0 0 0 0.102691 
4287 2 5.9116 7.38579 0.98468 0 0 0 0.0230218 
540 1 4.72247 3.59901 4.80851 0 0 0 0.0104227 
1963 1 5.60346 7.92643 0.242256 0 0 1 0.0458748 
3539 2 7.39855 6.37989 0.297966 0 0 1 0.206497 
1101 1 7.85226 6.65847 0.925746 0 0 1 0.0708677 
1364 1 7.29883 7.30126 0.365751 0 0 0 0.0509647 
1222 1 6.62966 6.82813 1.18643 0 0 0 0.0494646 
1980 1 7.52358 7.36945 1.62721 0 0 0 0.25197 
4230 2 8.98596 6.78097 0.108576 1 0 0 0.167768 
2416 1 8.59867 7.32558 0.802483 0 0 1 0.222216 
551 1 9.26959 6.60081 1.01486 0 0 0 0.0367202 
977 1 0.272736 5.99276 3.9603 0 1 1 0.0129235 
630 1 2.46308 9.39817 4.76623 0 0 0 0.0199376 
646 1 0.902755 8.58789 0.786048 0 0 1 0.118439 
3126 1 0.335747 9.31838 1.27754 1 0 1 0.0328428 
1813 1 7.98791 5.81528 0.0184547 0 0 1 0.0267219 
121 1 2.04662 8.65085 1.08659 0 0 0 0.0165877 
2833 1 2.80866 8.70564 0.303103 1 0 1 0.00867034 
959 1 3.06087 8.12427 1.09915 0 0 0 0.0248855 
998 1 3.19677 9.12749 1.15778 0 0 1 0.0165066 
3797 2 7.59651 0.220983 1.10095 0 1 -1 0.0497861 
645 1 4.37073 8.11158 1.16441 0 0 1 0.0640429 
203 1 3.91855 8.81134 0.475753 0 0 1 0.00969981 
3840 2 9.61257 5.01251 2.95602 0 0 0 0.0730683 
228 1 5.23712 9.32428 1.50748 0 0 0 0.0117683 
2263 1 5.05462 8.686 0.580634 0 0 0 0.01216 
1120 1 5.50104 8.20122 1.43893 0 0 0 0.0226166 
3064 1 6.23243 8.7005 0.500252 1 0 0 0.0163985 
204 1 6.15073 8.98315 1.53175 0 0 0 0.0345611 
1095 1 8.7741 6.27042 4.67593 0 0 0 0.0478249 
3629 2 7.65901 8.43116 1.65405 0 0 0 1.24943 
1613 1 7.13944 8.90206 1.07888 0 0 1 0.0174798 
2757 1 7.70974 9.45963 0.311722 0 0 0 0.0179733 
2717 1 0.139313 5.61031 0.123079 1 0 0 0.119066 
2626 1 7.82069 8.0425 0.889036 0 0 0 0.745407 
1908 1 9.13616 8.33655 1.02173 0 0 0 0.0206259 
3226 1 8.13801 9.04554 4.13839 1 0 0 0.150681 
1216 1 8.93306 9.12646 3.45015 0 0 0 0.184097 
184 1 9.57578 3.11082 3.75967 -1 0 0 0.00849646 
3903 2 8.99306 0.665816 0.192978 0 1 -1 0.144013 
2551 1 0.499246 0.694931 1.95049 1 0 0 0.143445 
3279 1 1.06307 0.515588 2.73334 1 1 0 0.0156469 
597 1 1.13463 1.5533 2.18422 0 0 0 0.032793 
993 1 0.585442 1.34122 3.1666 0 1 0 0.00215937 
1722 1 7.76019 0.049923 2.65489 0 0 1 0.114727 
3168 1 1.42485 7.58854 4.72754 1 0 0 0.0654383 
3011 1 1.92799 1.51399 1.57335 1 0 0 0.0409593 
2595 1 2.03875 0.64837 2.25468 0 0 0 0.0124231 
2565 1 1.66267 1.41006 3.09539 1 0 0 0.0174462 
1262 1 2.61869 1.49532 2.5084 0 1 0 0.0521202 
950 1 3.09614 0.759064 1.95294 0 1 0 0.0203233 
1238 1 2.91161 0.507231 3.08481 0 0 0 0.0463863 
4130 2 3.83981 0.967806 2.24647 0 0 -1 0.0987103 
3430 1 4.67519 1.32385 2.363 1 1 1 0.0212704 
3272 1 3.982 0.89706 3.10278 1 1 0 0.0142112 
416 1 4.83297 0.318146 2.76917 0 1 1 0.0261658 
1875 1 5.40224 0.685488 1.80479 0 1 1 0.0204407 
3905 2 5.39846 0.956969 2.64506 1 1 0 0.0348635 
2405 1 6.16235 1.32452 2.28384 0 1 0 0.0605908 
27 1 5.97731 0.273016 2.5589 0 1 0 0.0478612 
2689 1 6.06304 1.01014 3.29713 1 0 0 0.0705897 
3459 2 6.99089 1.19598 2.67524 0 0 0 0.0099803 
1032 1 6.93377 0.480848 2.19466 0 0 0 0.0627946 
820 1 7.86957 1.21296 2.6476 0 1 0 0.0608808 
979 1 0.176827 0.795988 1.01791 0 1 0 0.0227211 
1863 1 8.71101 1.15815 1.99479 0 1 0 0.0432868 
1231 1 8.99647 0.327512 2.63265 0 0 1 0.00527739 
3639 2 8.68186 1.33256 2.85727 0 0 1 0.0228034 
205 1 3.23334 9.56008 3.40091 0 0 0 0.0110362 
89 1 1.24984 2.36515 1.62731 0 0 -1 0.0179702 
1645 1 3.25961 3.53819 4.67706 0 0 0 0.164032 
1234 1 0.336081 2.81567 2.03107 0 0 0 0.0475098 
2910 1 0.90627 2.34554 2.87431 1 0 1 0.0415421 
4068 2 0.692685 3.1392 2.74954 1 0 -1 0.00752323 
1647 1 1.4976 3.26283 2.26335 0 0 0 0.0143473 
4233 2 3.56211 0.0800676 3.4493 1 1 1 0.0356996 
288 1 2.66089 3.24637 2.03769 0 1 0 0.0165111 
3586 2 2.1312 2.62901 1.6857 0 0 1 0.0361477 
636 1 2.00849 2.3069 2.46997 0 0 0 0.00403523 
3377 1 3.05953 2.63028 2.75928 1 1 1 0.0203826 
3319 1 2.87138 2.06915 1.71207 1 1 0 0.044047 
3952 2 4.28665 1.68515 3.12173 1 1 0 0.0166144 
1123 1 3.66262 1.75734 2.4309 0 0 0 0.0122463 
538 1 3.73392 2.6489 1.95955 0 0 0 0.017658 
610 1 4.58293 2.30809 2.53994 0 0 0 0.026489 
4097 2 4.79601 2.90433 3.06638 0 0 1 0.164104 
527 1 5.26849 1.99507 1.78818 0 0 0 0.0207362 
427 1 6.32689 2.25462 1.67925 0 1 0 0.0237761 
699 1 5.49553 1.8808 2.85352 0 0 1 0.0344682 
1026 1 5.69206 2.86385 2.32599 0 0 0 0.036884 
354 1 7.16226 1.8167 2.09681 0 1 0 0.0185384 
4141 2 7.72696 2.45208 2.1026 0 2 0 0.0181722 
2060 1 6.57228 2.08777 2.99541 0 0 0 0.0363462 
753 1 6.94061 2.90368 2.27097 0 0 1 0.0296 
2422 1 7.58039 2.29847 3.01767 0 1 1 0.0575995 
1250 1 9.15396 2.06712 1.68508 0 1 0 0.00382862 
706 1 8.54562 2.09826 2.59389 0 0 0 0.00583946 
3764 2 0.126526 5.29174 2.38458 0 0 2 0.0626577 
3921 2 8.66014 2.91356 2.34397 0 1 -1 0.0166326 
140 1 9.58352 4.10384 4.18289 0 0 1 0.0237307 
3304 1 2.5142 7.38673 4.71769 1 0 0 0.0368976 
1294 1 0.503459 3.86842 2.20646 0 1 0 0.0479262 
589 1 0.641859 4.60657 3.09675 0 0 0 0.000684038 
718 1 4.27177 6.05328 4.60351 0 0 0 0.0139956 
402 1 1.11833 3.68193 3.25085 0 0 0 0.0427801 
3556 2 1.94878 3.92099 1.83044 0 1 1 0.0211384 
613 1 2.27086 3.43068 2.94936 0 0 -1 0.0422211 
2897 1 1.50238 4.26129 2.474 1 1 1 0.0531303 
2002 1 2.51971 4.59199 2.99144 1 0 -1 0.0139297 
256 1 2.66138 4.32603 1.95073 0 0 0 0.0343539 
1433 1 4.02774 3.21957 2.7994 0 1 0 0.0642082 
3153 1 3.18472 3.79829 2.78424 1 0 1 0.0732889 
1288 1 4.41309 4.15267 2.29297 0 1 0 0.0553883 
1181 1 4.62291 3.23496 1.98861 0 0 0 0.11186 
3295 1 5.20138 3.88508 2.9209 1 1 0 0.00776084 
2213 1 5.25379 4.77433 2.40447 0 0 1 0.0988121 
2427 1 6.27517 3.81353 2.63944 0 1 0 0.0122362 
4235 2 7.79158 3.2025 3.26559 1 0 -1 0.0227624 
649 1 6.72928 4.36979 1.82616 0 0 1 0.0281527 
3508 2 7.06663 3.72048 2.20307 0 1 1 0.0557327 
1639 1 7.69137 4.54246 2.1821 0 0 0 0.0480936 
1277 1 7.26448 4.01507 3.05807 0 0 -1 0.0382036 
1536 1 7.88681 3.50514 2.37736 0 0 0 0.0124659 
3869 2 8.20247 4.14903 2.87332 0 0 -1 0.0187083 
533 1 8.60054 3.99418 1.81393 0 0 0 0.0279007 
1158 1 8.92094 3.63502 2.69077 0 0 0 0.0240949 
1035 1 8.85996 4.70492 2.53889 0 0 1 0.00461443 
1347 1 1.05841 6.25432 1.8253 0 1 -1 0.0464597 
185 1 5.10421 1.64618 4.54711 0 0 1 0.0247812 
3095 1 1.00103 5.16935 2.34475 1 0 0 0.13118 
829 1 0.552366 6.06179 2.6832 0 0 0 0.0811075 
3608 2 1.55631 5.89981 2.50259 0 0 0 0.0110007 
119 1 1.64075 5.24423 3.16215 0 0 1 0.0279555 
118 1 2.0095 5.23516 2.2164 0 0 0 0.0299379 
99 1 2.23841 6.08171 3.07197 0 0 0 0.0293568 
633 1 2.38966 6.34189 2.04969 0 0 0 0.00776214 
3532 2 2.8493 5.4768 2.7623 0 1 0 0.0162197 
86 1 2.97354 5.48297 1.82316 0 0 0 0.0323589 
1004 1 3.50606 4.90216 2.65279 0 0 1 0.0165271 
1994 1 4.03779 5.60701 2.02597 0 0 0 0.0400741 
64 1 4.46777 5.13154 2.84667 0 0 -1 0.0221893 
875 1 3.31083 6.13956 2.62055 0 1 1 0.0129206 
157 1 4.45462 6.1827 2.93864 0 0 1 0.0159531 
3520 2 3.78805 5.68982 3.21833 0 0 0 0.0483345 
1139 1 4.70033 4.88313 1.50412 0 0 0 0.0834354 
3037 1 5.15998 5.74513 2.09947 1 0 0 0.0429103 
525 1 5.78903 4.95027 1.58063 0 0 0 0.0871668 
4053 2 6.15138 4.73658 2.28146 0 0 -1 0.0985091 
827 1 6.10368 5.54725 2.52077 0 0 0 0.0602454 
3575 2 6.38648 6.22118 3.10334 0 1 0 0.0259821 
1083 1 7.87132 4.90363 3.14946 0 0 0 0.0117467 
662 1 7.0333 5.32348 1.91446 0 0 1 0.176401 
635 1 6.84343 4.86955 2.76544 0 0 0 0.148105 
579 1 7.10225 5.87522 2.83145 0 0 0 0.0930009 
1628 1 8.00124 5.5852 2.38684 0 0 0 0.0896391 
3475 2 7.88969 5.75978 3.22275 0 0 -1 0.0256291 
724 1 4.18486 9.43614 3.87493 0 0 0 0.0371429 
1040 1 9.05562 5.90006 2.06421 0 0 1 0.0374772 
412 1 0.280001 1.43764 4.20272 0 1 1 0.0302336 
1156 1 8.75648 5.55796 3.10102 0 0 0 0.0697458 
2468 1 0.436047 7.17228 2.77035 1 0 0 0.13703 
3347 1 0.930962 7.26907 1.8996 1 0 0 0.0072414 
2790 1 1.49906 6.78187 2.69143 1 0 -1 0.0213154 
273 1 1.38068 7.80038 2.85965 0 0 -1 0.167595 
3072 1 0.555605 7.91358 3.46038 1 0 0 0.30083 
3920 2 0.488036 8.038 2.63964 1 0 0 0.85667 
564 1 2.63548 7.14195 2.95639 0 0 0 0.0146699 
770 1 1.95168 7.34156 2.03042 0 0 1 0.027291 
4203 2 2.35964 8.04125 2.82296 0 0 0 0.00431321 
559 1 2.94686 7.85136 2.10161 0 0 0 0.00274447 
3827 2 2.99167 6.99593 2.22572 0 1 1 0.0158759 
3256 1 4.66702 6.61654 1.55743 1 0 0 0.00814608 
3257 1 3.55165 6.44234 1.60861 1 0 0 0.00835461 
3741 2 4.80295 7.54259 1.59863 0 -1 2 0.168111 
2990 1 3.85702 7.39432 1.93582 1 0 0 0.011615 
3855 2 4.02932 6.53916 2.32199 0 0 -1 0.0142885 
895 1 4.6442 7.08294 2.50275 0 0 1 0.0251543 
1530 1 3.67675 7.14614 2.91144 0 0 1 0.00802677 
3638 2 3.72879 8.0168 2.5391 0 0 0 0.0046823 
126 1 5.48246 7.68516 2.34542 0 0 0 0.0706098 
832 1 5.68302 6.77031 1.72063 0 0 0 0.110587 
556 1 5.57121 6.4589 2.74184 0 0 0 0.0646206 
224 1 6.55935 6.46889 2.26036 0 0 0 0.0573152 
1602 1 6.59774 7.56807 2.06887 0 0 0 0.036495 
1410 1 6.26403 7.17591 2.9579 0 0 0 0.0587265 
1068 1 7.52305 6.29105 1.81124 0 0 0 0.19149 
1160 1 7.35374 6.97776 2.66394 0 0 1 0.106965 
3953 2 8.09016 7.22348 2.31187 0 0 -2 0.053606 
1438 1 8.25782 6.53417 2.71949 0 0 0 0.0290666 
2840 1 9.44823 7.41944 1.66591 0 0 0 0.0120843 
1539 1 8.50606 6.80352 1.72535 0 0 0 0.0631527 
1652 1 8.74592 7.72452 2.63696 0 0 1 0.0194414 
1388 1 9.24314 6.77374 2.60208 0 0 1 0.0225315 
2357 1 8.8934 4.9795 0.404653 0 0 0 0.0821441 
3547 2 8.67221 7.03373 3.27445 -1 1 0 0.00959919 
2566 1 1.37103 9.13641 1.66024 1 0 0 0.0396808 
18 1 0.712216 8.30662 1.80648 0 0 0 0.0167374 
4174 2 0.556215 9.4098 3.07804 1 0 0 0.0333436 
742 1 1.04935 8.8626 2.59807 0 0 1 0.0259121 
1362 1 8.53572 8.7647 0.322205 0 0 0 0.0827942 
1192 1 6.18013 5.70537 4.70677 0 0 1 0.0526482 
136 1 1.88744 8.3457 2.15039 0 0 0 0.0240722 
3964 2 1.81458 9.23251 2.48844 0 0 0 0.0132566 
4284 2 2.64944 8.68844 1.69828 0 0 2 0.0522191 
2635 1 2.73835 8.79091 2.59647 1 0 0 0.020951 
665 1 5.96923 8.15169 3.18817 0 0 1 0.142038 
3973 2 4.48594 8.81526 1.58684 0 0 -1 0.0731267 
144 1 3.6481 8.59098 1.86374 0 0 0 0.0303479 
644 1 4.59131 8.22973 2.17971 0 0 1 0.0511205 
3269 1 3.9204 8.79486 2.89158 1 0 0 0.0144724 
3976 2 4.05709 9.62564 3.00302 1 0 0 0.0667457 
3815 2 5.12321 8.13438 2.95632 0 1 0 0.0649258 
307 1 5.53372 8.91602 2.45149 0 0 0 0.00470324 
3583 2 6.14525 8.37545 2.17685 -1 0 1 0.0453581 
1016 1 7.62379 9.37861 2.10602 0 0 0 1.37451 
3912 2 9.49401 3.33502 4.56402 0 1 0 0.0338875 
3947 2 2.9636 8.04902 4.15507 1 0 1 0.624015 
1752 1 7.77825 7.98119 2.43014 0 0 0 0.133665 
1832 1 6.94482 8.65675 2.16532 0 0 0 0.0608318 
1442 1 8.29033 8.93556 1.35193 0 0 0 0.569494 
4279 2 7.55237 8.81698 2.73262 1 0 0 0.0703792 
1529 1 6.96436 8.07872 3.0924 0 0 0 0.0960234 
2447 1 8.91806 8.17334 3.75915 0 0 0 0.0458312 
1134 1 8.50081 7.89632 1.70014 0 0 1 0.0955579 
3206 1 9.6081 5.6001 1.18446 0 0 0 0.0396567 
1142 1 8.46737 8.74785 2.44552 0 0 1 0.223882 
626 1 1.48435 7.08434 0.284732 0 0 0 0.0321524 
751 1 9.43439 8.36912 2.09802 0 0 1 0.00477902 
4186 2 9.40121 1.26037 1.42739 0 1 1 0.0268187 
107 1 1.2391 0.939127 4.01307 0 0 0 0.0563491 
3871 2 6.46039 7.91327 0.118148 0 0 0 0.0209531 
768 1 1.59931 3.83133 4.77819 0 1 0 0.0131103 
3410 1 2.42658 1.04143 3.85104 1 1 0 0.0201387 
1503 1 7.20212 8.40952 0.0956665 0 0 0 0.0391897 
4194 2 4.40876 0.355276 3.57007 1 1 1 0.0234883 
401 1 3.4543 0.726013 4.0094 0 1 0 0.0490454 
627 1 4.59526 0.758562 4.27295 0 0 0 0.0293278 
355 1 3.99411 1.70771 3.97682 0 1 0 0.175759 
1694 1 6.32425 7.08868 0.0795912 0 0 1 0.0441135 
2995 1 1.73485 8.58792 4.34318 1 0 0 0.00764568 
904 1 4.98069 1.13048 3.43662 0 1 2 0.0395153 
1140 1 3.20003 7.72481 0.162513 0 0 0 0.021028 
4038 2 5.48447 0.301053 3.3643 0 1 0 0.026744 
1412 1 8.37245 0.0588299 1.68684 0 1 0 0.0316567 
3143 1 5.61679 0.712616 4.21607 1 0 0 0.0551578 
383 1 7.15397 0.357748 3.37813 0 1 1 0.0330707 
1805 1 7.70271 1.00501 4.35444 0 1 -1 0.0422084 
1326 1 6.55648 1.22261 4.30248 0 1 -1 0.0339012 
1304 1 7.21809 1.44279 3.45127 0 1 0 0.0284426 
3569 2 0.382342 6.44509 0.343271 0 0 2 0.0958871 
730 1 5.91708 9.15782 3.5546 0 0 1 0.122062 
2177 1 8.25015 0.63599 3.42014 0 0 0 0.0153306 
2165 1 9.22901 9.36517 1.55248 0 0 1 0.167876 
1557 1 9.17109 1.04959 3.57697 0 0 0 0.0211711 
1227 1 8.84426 0.642158 4.44762 0 0 1 0.0161902 
2861 1 9.48904 7.38079 3.3543 0 0 0 0.0557551 
518 1 1.45489 2.81645 4.60983 0 0 0 0.0186026 
3659 2 0.321839 2.11932 3.5755 1 1 -1 0.0478768 
814 1 1.06886 2.06642 3.9788 0 1 0 0.0624969 
2675 1 0.579527 2.90434 3.89229 1 0 1 0.0108483 
4184 2 2.64898 2.87668 3.53155 1 1 -1 0.0167449 
2537 1 1.66889 2.81073 3.55919 1 0 -1 0.0420297 
1396 1 1.97179 1.70327 4.46329 0 1 0 0.0907654 
932 1 2.40805 2.06515 3.41682 0 1 1 0.0233466 
3340 1 3.00264 2.51454 4.25027 1 1 0 0.0160341 
151 1 3.21948 1.51176 3.35071 0 0 0 0.0800979 
607 1 3.82389 2.47046 3.39959 0 0 0 0.0426594 
778 1 4.02501 2.80688 4.41279 0 1 0 0.134162 
3092 1 3.48895 9.24399 4.63752 1 0 0 0.00735182 
2024 1 5.18387 2.77806 4.37204 0 0 -1 0.0247161 
1736 1 4.79522 2.19894 3.55453 0 0 1 0.040798 
1721 1 5.766 2.85951 3.39674 0 0 0 0.0209383 
909 1 5.82224 1.92792 3.84925 0 1 0 0.0299894 
709 1 6.21033 3.21357 4.46003 0 0 0 0.034275 
1878 1 6.94046 9.21521 3.13603 0 0 1 0.164129 
1566 1 6.93529 3.06143 3.30036 0 0 0 0.00978638 
3854 2 7.68223 1.87988 4.27781 1 0 -2 0.0818219 
215 1 6.94212 2.29556 4.04249 0 0 0 0.019794 
2149 1 7.81343 2.76866 4.03021 0 0 0 0.0813617 
43 1 4.51108 7.95146 0.115862 0 0 0 0.00105119 
517 1 5.71554 8.41371 4.24022 0 0 0 0.0514979 
1916 1 8.28661 1.6864 3.64485 0 1 1 0.0524973 
1089 1 6.9399 0.0294304 4.36217 0 0 0 0.00380928 
3320 1 5.20205 9.41303 4.21896 1 0 0 0.0296487 
1624 1 8.57621 2.88379 3.34369 0 0 -1 0.0101904 
2119 1 0.708232 6.7445 4.66277 1 -1 1 0.0414976 
1678 1 9.24479 2.05192 3.70573 0 0 0 0.0179309 
3717 2 8.58167 2.35115 4.14737 0 1 1 0.0773288 
1349 1 7.25051 9.56682 4.33114 0 0 -1 0.00635478 
3993 2 1.40757 3.52034 4.01676 0 0 1 0.0413151 
2733 1 0.752747 4.10543 4.07147 1 0 1 0.0158898 
198 1 2.29958 3.46984 4.08386 0 0 1 0.030597 
1728 1 1.71357 4.37881 3.75042 1 0 1 0.0533933 
194 1 1.91362 4.84495 4.57535 0 0 1 0.094058 
487 1 4.88739 8.86427 3.33928 0 0 0 0.0803533 
301 1 3.03325 4.33981 3.8883 0 1 0 0.0294683 
710 1 4.70674 8.21601 4.13542 0 0 0 0.0420996 
3814 2 8.9643 3.15341 0.0442144 -1 0 2 0.0603835 
3155 1 3.97381 4.20772 3.23008 1 0 1 0.0626554 
1404 1 4.6147 3.3062 3.729 0 1 1 0.00447263 
2569 1 3.36339 3.36988 3.67706 1 0 0 0.0334277 
2989 1 4.03782 4.18552 4.29155 1 0 0 0.0635139 
946 1 7.3693 2.50807 0.0834761 0 1 1 0.032799 
335 1 4.912 4.62406 3.65163 0 1 -1 0.0649177 
2553 1 5.39717 3.81423 4.06176 0 0 -1 0.00767384 
1874 1 6.39374 3.84888 3.69721 0 1 0 0.0126026 
33 1 5.88794 4.65917 4.27593 0 0 -1 0.135393 
1504 1 3.16391 1.48616 4.62954 0 1 0 0.0390671 
519 1 6.70172 9.65469 0.468475 0 0 0 0.0491948 
900 1 6.71151 7.90456 4.81449 0 1 0 0.0147657 
3864 2 7.23478 3.77689 3.94698 0 1 -1 0.0795718 
1532 1 7.07284 4.61962 3.82409 0 0 0 0.0257717 
1143 1 8.10479 3.93214 3.69484 0 0 1 0.00173107 
3889 2 7.67068 9.56057 1.22854 0 -1 1 0.0163478 
1193 1 8.64514 3.26138 4.38401 0 0 1 0.0678773 
1554 1 2.95848 3.1334 0.114263 1 0 0 0.0663218 
3780 2 8.93963 3.73602 3.66036 0 0 2 0.0199119 
821 1 3.19435 8.02059 3.21167 0 0 0 0.00676605 
2528 1 8.84565 4.66785 3.57658 0 0 0 0.0147844 
774 1 4.53078 9.45489 2.26594 0 0 0 0.0502175 
4253 2 0.668904 5.52346 3.26327 1 0 0 0.0918971 
3839 2 1.09935 5.99392 4.44811 0 1 1 0.0829306 
2727 1 0.962229 5.20178 3.95991 1 0 0 0.141417 
40 1 1.24374 6.1286 3.49526 0 0 0 0.00902849 
2000 1 7.9269 9.45938 3.16966 0 0 0 0.138856 
4122 2 0.605483 6.66182 3.4471 1 -1 0 0.120869 
3902 2 2.31161 5.04507 3.79243 1 0 1 0.0174978 
521 1 1.98496 5.80071 4.16724 0 0 0 0.0637969 
3640 2 2.97326 6.43893 3.43329 0 -1 1 0.0248426 
221 1 2.94444 6.30792 4.39248 0 0 0 0.00758714 
1848 1 2.86865 5.23707 4.60045 0 1 -1 0.0659323 
1653 1 3.0068 5.54061 3.60269 0 0 0 0.0222897 
2494 1 9.69699 4.04235 2.08714 0 0 0 0.0103134 
3477 2 3.58033 5.71578 4.37532 0 -1 -2 0.0143401 
1392 1 3.97046 5.15579 3.81984 0 1 1 0.00628297 
3523 2 4.61095 5.79129 3.76189 0 0 1 0.0319712 
1048 1 3.82039 6.391 3.72108 0 0 0 0.00959089 
3141 1 5.27326 5.5475 3.22556 1 0 0 0.0468314 
1654 1 5.29586 5.53889 4.25354 0 0 0 0.043078 
172 1 5.90242 4.71685 3.23304 0 0 0 0.116866 
600 1 2.73731 8.81623 3.87923 0 0 0 0.00545483 
3600 2 7.9062 6.04747 4.51992 0 0 0 0.0513462 
4159 2 6.83585 6.08841 4.20949 0 0 0 0.127075 
1445 1 6.35367 5.47204 3.69561 0 0 1 0.194768 
4100 2 6.73616 5.04981 4.46061 1 0 1 0.080283 
2108 1 7.43867 5.55439 3.91012 0 0 0 0.0788356 
3798 2 7.94222 4.7337 3.98921 0 1 -1 0.0845478 
3626 2 5.95219 1.78841 0.158003 0 0 0 0.0167956 
465 1 1.85827 8.68617 3.25656 0 0 0 0.00594397 
584 1 9.49405 1.40504 2.62381 0 0 0 0.0406397 
2037 1 8.50635 5.44682 4.147 0 0 -1 0.0897472 
1876 1 8.22456 6.38168 3.7688 0 0 0 0.0223472 
3426 1 0.444673 8.13151 4.47227 1 0 0 0.218855 
2399 1 4.16744 9.60517 1.29721 0 0 0 0.00260998 
1141 1 4.93431 4.60191 4.72503 0 0 0 0.0438355 
1667 1 9.15681 2.41254 4.77714 0 0 0 0.0395839 
466 1 1.22877 7.24188 3.75577 0 0 1 0.147189 
4240 2 1.38128 8.14567 3.65782 1 -1 0 0.0609875 
2929 1 7.92874 8.36387 3.34769 0 0 1 0.16568 
2556 1 2.22437 7.79389 3.75073 1 0 1 0.0470034 
434 1 2.21366 6.75678 3.82153 0 0 0 0.0787699 
666 1 3.23433 7.32063 3.94748 0 0 0 0.0314962 
1244 1 4.2873 7.88611 3.20211 0 0 0 0.016403 
3006 1 8.61892 4.40353 4.5724 1 0 0 0.0259336 
534 1 4.27367 7.23665 4.14547 0 0 0 0.00705281 
3763 2 4.46357 6.93103 3.31638 1 0 1 0.0249053 
4241 2 8.62107 9.63926 0.613715 0 0 1 0.527954 
430 1 5.22447 7.39713 3.42939 0 0 0 0.0437162 
1275 1 5.36228 7.44981 4.45732 0 0 0 0.0566388 
766 1 4.9594 6.50589 3.91503 0 0 0 0.0106359 
57 1 5.96636 6.46434 3.81028 0 0 0 0.0313294 
1988 1 6.28135 7.55776 3.93087 0 0 0 0.0892503 
1039 1 3.75883 8.52516 3.87595 0 0 1 0.047828 
4078 2 8.14387 1.22574 0.288465 0 1 0 0.0570454 
3041 1 7.00051 6.61929 3.55755 1 0 -1 0.0212081 
1705 1 7.61948 7.79682 4.26786 0 0 1 0.275112 
177 1 7.91934 7.3287 3.44351 0 0 0 0.0528238 
2685 1 9.25031 6.334 3.5692 0 0 0 0.061149 
1453 1 8.77126 7.20702 4.12306 0 0 0 0.0071431 
1626 1 9.13904 5.95203 0.101917 0 0 0 0.178478 
3071 1 6.81077 8.62124 4.02875 1 0 0 0.00410299 
4137 2 1.44212 9.38661 4.23114 1 1 1 0.0734776 
2169 1 0.922317 8.88389 3.67355 1 0 0 0.032718 
1422 1 6.21576 9.43103 4.6543 0 0 1 0.018027 
705 1 9.54953 4.08683 0.150682 0 0 0 0.0127238 
12 1 0.258657 7.81653 1.04 0 0 0 0.00950285 
78 1 0.172331 1.73049 1.78724 0 0 0 0.0696172 
3522 2 0.176001 1.61529 0.844899 0 0 0 0.0409399 
2214 1 6.42445 6.75437 4.69475 0 0 1 0.0793989 
3309 1 0.367602 5.75291 1.09446 1 0 0 0.0828825 
697 1 2.42322 9.50051 1.80992 0 0 0 0.0077249 
2451 1 9.07957 8.837 4.6742 0 0 1 0.037355 
2711 1 2.19498 1.98291 0.023071 1 1 1 0.110349 
3044 1 8.55769 1.64153 4.65919 1 0 0 0.0728857 
3554 2 3.36585 4.45375 4.71568 0 1 2 0.0604846 
580 1 5.63108 9.57933 0.502717 0 0 1 0.0172538 
787 1 7.56532 4.7705 4.75023 0 0 0 0.0205641 
1623 1 9.70786 4.15833 3.15884 0 0 0 0.0496173 
558 1 3.73404 7.96851 4.70529 0 0 0 0.281992 
3247 1 3.7072 0.0545142 2.47026 1 1 0 0.0411041 
938 1 0.641231 3.40734 4.79214 0 1 0 0.0187005 
1717 1 9.65109 1.50874 4.48177 0 0 1 0.0211541 
2302 1 9.35653 5.30658 4.79087 0 0 0 0.100769 
2599 1 0.312055 1.29292 0.0743225 1 0 0 0.0486156 
268 1 5.076 0.000642942 0.272133 0 1 1 0.0354109 
201 1 2.47422 4.16537 0.0139725 0 0 2 0.0772309 
3024 1 0.864892 0.745174 5.75084 1 1 0 0.0277715 
3558 2 0.12802 1.23507 6.07618 1 0 1 0.0439416 
3729 2 0.220781 2.46251 8.06985 1 0 -1 0.0637307 
169 1 4.98273 5.91286 9.64001 0 0 -1 0.0145892 
3497 2 4.76241 1.54695 9.43587 0 0 2 0.0971056 
1276 1 1.83193 0.598476 6.10171 0 0 -1 0.0520542 
4300 2 1.49737 1.32034 5.66627 0 1 0 0.0436924 
2933 1 2.34048 1.32342 5.46811 0 1 0 0.0699617 
550 1 4.3577 8.88998 4.9501 0 0 0 0.0578609 
1764 1 2.91733 0.611492 6.01333 0 1 -1 0.0830325 
4273 2 4.19915 0.988335 5.76062 1 1 0 0.0568846 
1720 1 3.75927 0.687507 5.05919 0 0 0 0.0378635 
578 1 3.40348 1.49272 5.64448 0 0 0 0.0895807 
3999 2 4.55825 8.87744 9.53661 0 0 0 0.0167933 
582 1 4.86225 0.883926 5.29273 0 0 0 0.0681426 
471 1 4.74365 0.388074 6.15173 0 1 1 0.0916392 
417 1 5.5487 1.06484 6.17914 0 1 0 0.0463592 
2048 1 5.91468 1.10633 5.11226 0 0 -1 0.0378197 
704 1 7.05025 2.89074 4.9743 0 0 0 0.0634572 
2201 1 6.9952 0.786825 5.25037 0 0 0 0.00415268 
880 1 6.38084 0.424724 6.16912 0 1 0 0.0464554 
1710 1 8.02754 1.15737 5.52225 0 0 1 0.056526 
213 1 0.949411 4.7435 4.88025 0 0 0 0.0275426 
286 1 7.4079 1.12613 6.42912 0 1 0 0.0123043 
1310 1 6.55495 1.5929 5.83926 0 1 0 0.0672571 
1036 1 9.09832 1.03211 5.40387 0 0 1 0.0249085 
1291 1 8.53094 0.7105 6.35606 0 1 0 0.0783426 
2780 1 9.03498 4.7087 9.00715 0 1 -1 0.0369451 
2493 1 9.32186 1.51053 6.45612 0 0 0 0.0135307 
3579 2 0.33182 1.20779 8.24414 0 0 0 0.607564 
4048 2 0.914453 2.33695 5.50323 1 1 0 0.027569 
141 1 0.817115 1.71516 6.04075 0 0 0 0.0491754 
1527 1 0.289153 2.95998 5.68348 1 0 -1 0.0804283 
154 1 1.29182 3.15853 5.62527 0 0 0 0.0389452 
3324 1 1.74481 2.23637 5.54849 1 1 0 0.0552449 
2068 1 8.42557 0.178294 5.34696 0 0 0 0.0158005 
1521 1 2.24902 3.19282 6.1802 0 0 0 0.0349733 
3032 1 0.0958273 4.71656 9.07477 1 0 -1 0.0371405 
1131 1 2.69916 2.22292 5.99042 0 0 0 0.0552503 
1382 1 0.98059 8.05021 9.56173 0 0 0 0.225405 
1069 1 4.4653 1.81369 5.96222 0 0 0 0.0592675 
248 1 4.61319 2.54234 5.2558 0 0 0 0.0341771 
83 1 3.99615 2.7631 6.13286 0 0 -1 0.0197291 
1425 1 3.48109 2.4595 5.2355 0 1 0 0.0173705 
3503 2 3.98322 3.2017 5.30845 0 0 1 0.0182445 
1801 1 5.10603 2.56219 6.25253 0 1 0 0.0102251 
3727 2 5.96989 2.02455 6.26856 0 1 -1 0.0619078 
881 1 5.55696 3.04774 5.37935 0 1 1 0.042302 
2093 1 5.45411 1.9227 5.54884 0 0 0 0.0659971 
1082 1 6.5209 2.6868 5.8563 0 0 -1 0.0493119 
1117 1 7.53462 2.08456 5.94153 0 0 0 0.0887838 
2319 1 2.99854 0.982639 9.58428 0 0 -1 0.038508 
2097 1 8.70592 1.96461 5.67787 0 0 0 0.0244657 
3688 2 9.25537 2.57862 5.85756 0 0 2 0.0580653 
4301 2 8.26103 2.68759 5.88632 0 0 0 0.0443383 
941 1 0.67613 4.08621 5.61941 0 1 0 0.0707811 
1046 1 3.72573 0.323857 9.33444 0 0 -1 0.0345622 
1826 1 8.93289 8.72904 8.95929 0 0 -1 0.0437782 
4210 2 0.196046 4.30891 8.28162 1 0 0 0.0316911 
188 1 3.193 9.41601 8.12273 0 0 0 0.0474737 
3747 2 1.84371 3.85742 5.52842 0 0 0 0.156945 
389 1 1.5723 4.67661 5.63955 0 1 0 0.112628 
719 1 2.46574 4.28434 6.04954 0 0 1 0.052726 
1321 1 1.46718 3.89744 6.38099 0 0 0 0.0678178 
1477 1 3.19361 3.4566 5.75749 0 1 0 0.0142574 
1861 1 8.22302 9.60123 5.87707 0 0 0 0.0676844 
1924 1 4.68457 3.50967 5.91628 0 0 0 0.0154885 
341 1 3.96182 4.11297 5.4624 0 1 0 0.0214605 
4042 2 3.97849 3.59771 6.29579 0 1 1 0.00408816 
1578 1 9.77185 9.07515 5.97045 0 0 0 0.012584 
1074 1 5.09924 4.58273 5.70957 0 0 0 0.0283414 
4088 2 5.99618 4.52763 5.93541 1 0 -1 0.0825104 
1136 1 5.82331 4.02908 5.20196 0 0 0 0.060235 
1565 1 5.71178 3.70836 6.22493 0 0 -2 0.0142905 
127 1 7.72606 3.35908 5.83397 0 0 0 0.0385002 
4117 2 6.43359 3.39672 5.23541 0 0 0 0.0515216 
1819 1 6.74042 3.99016 5.84365 0 0 0 0.0397324 
3970 2 7.41468 4.18536 5.37466 0 1 -1 0.00897924 
96 1 6.6792 4.99165 6.27917 0 0 0 0.0329482 