ITEM: TIMESTEP
14400
ITEM: NUMBER OF ATOMS
4320
ITEM: BOX BOUNDS xy xz yz pp pp pp 
0 19.3679 0.05793
0 19.31 0
0 9.655 0
ITEM: ATOMS id type x y z ix iy iz msd_nonAffine 
3378 1 1.24508 0.598404 0.231031 1 1 1 0.0556645 
486 1 1.54585 0.625855 1.25018 0 1 1 0.011699 
3226 1 8.17665 9.3276 3.95125 1 0 0 0.0484408 
332 1 1.00983 1.51485 0.828461 0 1 0 0.00475998 
964 1 2.28081 0.6741 0.449504 0 1 1 0.00191873 
1503 1 7.08974 8.55957 0.111262 0 0 0 0.0208233 
3697 2 1.91231 1.62061 0.770153 1 1 1 0.0491846 
135 1 2.83579 1.31832 0.98848 0 1 1 0.00372325 
1553 1 4.37999 0.804298 0.553519 0 0 0 0.0352319 
4065 2 3.6715 1.27258 0.570134 1 1 1 0.0150107 
1198 1 3.44383 0.444059 0.761522 0 0 1 0.00763821 
868 1 3.94326 1.25787 1.45866 0 1 0 0.020476 
3422 1 4.32266 0.30589 1.63704 1 1 0 0.0430445 
1493 1 4.90753 1.42338 1.16042 0 1 1 0.0129565 
4074 2 5.05083 0.525888 1.00982 0 1 1 0.038427 
3203 1 5.3545 1.09285 0.317561 1 0 0 0.0132168 
1264 1 5.9777 1.34893 1.1802 0 1 0 0.0413201 
376 1 5.92983 0.321551 0.856942 0 1 0 0.0116414 
3758 2 6.17088 0.683934 1.63183 0 0 1 0.063103 
663 1 6.90921 0.623064 1.2366 0 0 0 0.111905 
963 1 6.60882 1.15662 0.351058 0 1 1 0.0808854 
4222 2 6.63012 0.232031 0.384118 1 0 -1 0.0426786 
3797 2 7.54845 0.081626 1.1168 0 1 -1 0.0951445 
1216 1 8.88886 9.43407 3.25033 0 0 0 0.0900814 
2154 1 7.89822 0.749376 1.69363 0 0 1 0.115158 
4078 2 8.25659 1.10067 0.403698 0 1 0 0.105652 
1783 1 9.52184 0.555557 0.917223 0 1 0 0.0141891 
1177 1 8.71605 1.41605 1.06323 0 0 1 0.0399175 
2805 1 8.38071 0.398239 0.84974 1 1 1 0.0685506 
3522 2 0.210599 1.73693 0.68614 0 0 0 0.00847875 
2822 1 9.67568 8.94078 3.7365 0 0 0 0.0134422 
460 1 1.83741 0.0770925 4.34789 0 1 0 0.0401908 
1626 1 9.46931 5.8296 0.142662 0 0 0 0.0869547 
2926 1 1.53958 2.36905 0.488273 1 1 1 0.00840265 
2794 1 0.485221 2.52931 0.868923 1 0 0 0.0403964 
3597 2 0.982925 3.12847 1.4286 0 1 0 0.0368091 
571 1 1.10267 9.52475 0.723154 0 0 1 0.0227715 
885 1 2.4687 2.40001 0.888516 0 1 1 0.0519154 
3107 1 2.98385 5.78438 0.0524726 1 0 1 0.0125367 
512 1 1.73444 3.26786 1.04627 0 0 0 0.0393448 
3535 2 3.18211 2.99371 1.18562 0 1 0 0.0186933 
1722 1 7.94504 0.160196 2.61882 0 0 1 0.0341815 
3224 1 4.38025 1.81164 0.376631 1 1 0 0.0418489 
1822 1 3.53892 2.21845 0.959508 0 1 0 0.0311471 
1031 1 4.66146 2.46678 1.21442 0 0 0 0.0538202 
3604 2 3.95219 2.65874 0.242835 0 0 0 0.0161163 
4308 2 4.13392 2.04314 1.76043 0 0 1 0.11408 
640 1 4.88817 2.96224 0.25857 0 0 1 0.0261357 
1704 1 5.96521 2.97295 0.322922 0 0 1 0.0130993 
580 1 5.56426 9.43657 0.227144 0 0 1 0.0327704 
100 1 5.7003 2.96213 1.32168 0 0 0 0.0365613 
951 1 5.50524 2.1112 0.66716 0 1 1 0.0277794 
1055 1 7.50312 1.51018 0.848607 0 0 0 0.0497457 
3784 2 6.77959 1.46504 1.46727 0 0 -1 0.10095 
629 1 6.68667 2.27068 0.478714 0 0 0 0.0184184 
1563 1 7.46156 2.67739 1.29653 0 0 0 0.0093515 
576 1 8.18197 3.02474 0.531993 0 0 0 0.0247316 
1632 1 8.01042 1.80898 1.73381 0 0 0 0.0449875 
3737 2 8.21475 2.1759 0.985289 1 1 0 0.0577059 
3175 1 9.14315 2.31654 0.747702 1 0 1 0.00252083 
1395 1 8.58654 2.77104 1.54717 0 1 1 0.0380094 
2451 1 8.90098 8.89801 4.58166 0 0 1 0.0193267 
568 1 8.30231 8.01854 4.72321 0 0 -1 0.0239589 
3383 1 0.966323 3.29021 0.298524 1 0 1 0.0951568 
547 1 1.16577 4.04999 1.27418 0 0 1 0.0200199 
2997 1 0.341716 4.23437 0.217901 1 0 0 0.0580964 
72 1 1.41736 4.26075 0.199455 0 0 0 0.112324 
1104 1 8.40114 2.03113 0.135602 0 0 0 0.0284942 
3814 2 8.96233 2.86023 0.104505 -1 0 2 0.0124562 
2007 1 2.04045 4.63169 1.26405 1 0 0 0.00467953 
3412 1 2.00136 0.225628 3.24922 1 1 0 0.00671112 
3150 1 2.75057 3.68454 1.03399 1 0 0 0.0350393 
1485 1 4.046 3.33139 0.833854 0 1 1 0.0159517 
380 1 4.54723 4.09512 0.210757 0 1 1 0.0254119 
34 1 3.50534 4.22997 0.541575 0 0 0 0.00854708 
1056 1 4.69574 3.98577 1.25459 0 0 0 0.00811975 
965 1 3.67957 3.79163 1.67825 0 0 1 0.0134823 
3915 2 5.31894 3.59498 0.762208 0 1 1 0.0382573 
555 1 5.36064 4.62547 0.695351 0 0 0 0.00598906 
1214 1 6.16487 3.95385 0.776723 0 0 1 0.0277135 
910 1 5.61039 3.93826 1.89741 0 1 0 0.129074 
810 1 7.07822 3.3281 0.50661 0 1 1 0.00486555 
4118 2 5.98082 9.54024 1.87065 1 1 1 0.044653 
981 1 7.22021 4.34163 0.309064 0 1 0 0.016101 
3546 2 6.98789 4.08046 1.07667 0 0 1 0.00367106 
2081 1 7.74863 3.63387 1.37852 0 0 0 0.00210634 
2050 1 6.6434 3.33291 1.56813 0 0 0 0.0328759 
584 1 9.57671 1.4871 2.64311 0 0 0 0.0395906 
639 1 9.10472 3.309 0.865371 0 0 0 0.0292607 
1153 1 9.39233 4.53621 1.18466 0 0 0 0.023415 
1946 1 8.36747 4.25054 0.706548 0 1 0 0.0112741 
3094 1 0.936355 4.96728 0.713254 1 0 0 0.0748403 
2010 1 1.04019 6.05192 0.519405 1 0 0 0.00878024 
1813 1 8.10109 5.88399 0.0205409 0 0 1 0.00563311 
43 1 4.33109 7.75371 0.11203 0 0 0 0.0582875 
1141 1 5.02993 4.47962 4.63913 0 0 0 0.026289 
4081 2 1.87316 6.24144 0.56245 1 1 0 0.004109 
1976 1 1.62144 5.57013 1.16428 0 0 1 0.0681677 
2670 1 2.00863 5.33657 0.198731 1 0 1 0.0400192 
1042 1 2.53847 5.95543 1.00612 0 0 1 0.0455131 
1233 1 2.8513 4.98777 0.75039 0 0 1 0.0340897 
187 1 2.11093 3.18295 0.117051 0 0 0 0.00327569 
3059 1 3.7417 4.82401 1.44754 1 0 0 0.00366166 
2654 1 4.428 5.15952 0.646245 1 0 1 0.055322 
138 1 3.65481 5.83205 0.976012 0 0 1 0.0126638 
3671 2 3.56355 5.15908 0.427859 0 0 1 0.00342635 
3034 1 5.03502 5.88703 1.03186 1 0 0 0.0208673 
3971 2 5.72753 5.40531 0.859928 0 0 0 0.0400959 
146 1 6.53807 6.02239 0.417605 0 0 0 0.0367396 
655 1 6.03936 6.00751 1.42834 0 0 0 0.0581503 
1694 1 6.35174 7.00299 0.0545424 0 0 1 0.0474305 
2653 1 7.5925 4.71552 1.22493 0 0 1 0.0488635 
537 1 6.64859 4.98625 0.831286 0 0 0 0.0240082 
80 1 7.50679 5.68384 0.943124 0 0 -1 0.0724617 
4073 2 8.08794 5.94263 1.53557 0 0 0 0.131374 
3679 2 8.08786 5.06752 0.454378 0 1 2 0.0163902 
4129 2 5.30459 0.13369 4.8082 0 0 0 0.0630544 
213 1 1.01445 4.67838 4.82614 0 0 0 0.0122177 
2000 1 7.93813 9.60798 2.8809 0 0 0 0.0384819 
2497 1 8.66024 5.67546 0.825333 0 0 0 0.0608186 
1215 1 8.56868 4.95674 1.54221 0 0 1 0.0152568 
818 1 0.411357 9.63671 2.31213 0 0 0 0.0148197 
1252 1 7.4849 0.462605 0.276607 0 1 1 0.0442146 
1077 1 0.683 6.86177 1.12699 0 0 0 0.0318944 
17 1 1.41359 7.70092 1.23859 0 0 1 0.00047954 
1221 1 9.57375 5.11421 2.03492 0 0 1 0.00554268 
2250 1 1.78236 6.72663 1.2279 1 0 0 0.00971139 
2303 1 2.04642 7.7531 0.405828 1 1 0 0.00166401 
3731 2 2.2811 7.8076 1.40729 0 0 0 0.0182077 
759 1 2.5102 6.73183 0.235508 0 0 1 0.00212857 
1830 1 2.79618 7.11726 1.1931 0 0 0 0.0179465 
3309 1 0.261672 5.83088 1.17788 1 0 0 0.0585112 
961 1 4.43181 6.53452 0.399003 0 1 1 0.00612623 
3878 2 3.20328 6.49508 0.691327 0 0 2 0.0110999 
543 1 3.77843 7.19519 0.795963 0 0 1 0.0354205 
3626 2 6.03107 1.75921 0.0797866 0 0 0 0.00498967 
985 1 5.56887 6.60297 0.599182 0 0 1 0.00587849 
270 1 4.98868 7.44061 0.814828 0 0 0 0.0984285 
1191 1 6.62329 7.79512 0.798184 0 0 0 0.163644 
4287 2 5.87141 7.33758 1.06506 0 0 0 0.0140187 
3092 1 3.43275 9.28375 4.76744 1 0 0 0.00703434 
1963 1 5.6854 7.85661 0.21659 0 0 1 0.0550475 
3539 2 7.416 6.42741 0.397928 0 0 1 0.19015 
1101 1 8.0519 6.58507 0.8809 0 0 1 0.0785141 
1364 1 7.35394 7.29812 0.309609 0 0 0 0.0534313 
1222 1 6.82368 6.7149 1.12658 0 0 0 0.133031 
1980 1 7.44799 7.49244 1.39973 0 0 0 0.112041 
4006 2 8.01492 8.93846 4.75053 0 0 0 0.118781 
2416 1 8.36521 7.5464 0.763343 0 0 1 0.0710617 
551 1 9.20681 6.60023 0.970717 0 0 0 0.0340761 
630 1 2.39484 9.43641 4.78455 0 0 0 0.00906817 
303 1 9.47691 2.55341 2.84465 0 1 0 0.0385273 
646 1 0.881357 8.50961 0.792687 0 0 1 0.0794182 
3126 1 0.194538 9.13735 1.32336 1 0 1 0.0338759 
3840 2 9.53336 4.86485 2.85211 0 0 0 0.112701 
121 1 1.97542 8.56544 1.11772 0 0 0 0.0286175 
2833 1 2.71544 8.65087 0.333012 1 0 1 0.00436635 
959 1 3.14154 8.14863 1.16088 0 0 0 0.00599791 
998 1 3.11693 9.24634 1.12609 0 0 1 0.00688823 
3493 2 6.40914 4.47879 0.125123 0 0 -1 0.0356933 
645 1 4.24298 8.13944 1.28371 0 0 1 0.0382791 
203 1 3.80529 8.61835 0.483649 0 0 1 0.0134796 
3124 1 9.50563 3.09179 1.90476 0 0 1 0.0250412 
228 1 5.39554 9.19544 1.29555 0 0 0 0.14168 
2263 1 4.93984 8.52854 0.643017 0 0 0 0.05249 
1120 1 5.50081 8.09743 1.41378 0 0 0 0.0624907 
3064 1 6.16511 8.71646 0.662401 1 0 0 0.0837225 
204 1 6.21089 8.73794 1.6808 0 0 0 0.184782 
305 1 0.205497 3.68518 1.19174 0 1 -1 0.0992512 
3629 2 7.55761 8.00306 0.759521 0 0 0 0.123005 
1613 1 7.04968 8.80524 1.17349 0 0 1 0.0367361 
2757 1 7.66016 9.46924 0.235268 0 0 0 0.0366266 
979 1 0.109621 0.91843 0.972634 0 1 0 0.032293 
2626 1 8.07723 8.68035 0.947664 0 0 0 0.0389503 
1908 1 9.00452 8.39357 0.999618 0 0 0 0.033265 
4241 2 9.30687 9.33576 0.543005 0 0 1 0.0340034 
1305 1 6.33633 0.0756807 3.58899 0 1 0 0.0139638 
12 1 0.204033 7.77512 1.08771 0 0 0 0.0120046 
2214 1 6.58677 6.89029 4.7001 0 0 1 0.00398821 
2551 1 0.649231 0.744928 1.92994 1 0 0 0.108057 
3279 1 1.06083 0.544267 2.86495 1 1 0 0.0162349 
597 1 1.07118 1.56559 2.29366 0 0 0 0.0514466 
993 1 0.60624 1.42097 3.21588 0 1 0 0.00618198 
2380 1 4.50038 9.44795 0.0956184 0 0 0 0.0499235 
697 1 2.324 9.46885 1.81759 0 0 0 0.00479136 
3011 1 2.00971 1.57658 1.63391 1 0 0 0.00970987 
2595 1 2.07091 0.653147 2.27349 0 0 0 0.00632548 
2565 1 1.71498 1.43191 3.06695 1 0 0 0.00323475 
1262 1 2.66657 1.34852 2.68058 0 1 0 0.00250415 
950 1 3.11951 0.692814 1.93282 0 1 0 0.018727 
1238 1 3.00421 0.425705 3.19951 0 0 0 0.0255746 
4130 2 3.94862 0.828125 2.23354 0 0 -1 0.017341 
3430 1 4.70871 1.41204 2.28153 1 1 1 0.0215178 
3272 1 3.95725 0.890371 3.09589 1 1 0 0.0167928 
416 1 4.88268 0.434248 2.78696 0 1 1 0.0250874 
1875 1 5.27606 0.690554 1.79762 0 1 1 0.0475458 
3905 2 5.39745 1.08694 2.65774 1 1 0 0.025214 
2405 1 6.1549 1.41148 2.26419 0 1 0 0.0471134 
27 1 6.0101 0.459104 2.52109 0 1 0 0.015114 
2689 1 6.13423 1.10069 3.34825 1 0 0 0.0383157 
3459 2 6.89913 1.40156 2.76438 0 0 0 0.0562374 
1032 1 6.9799 0.698796 2.25797 0 0 0 0.0931094 
820 1 7.76089 1.19467 2.7007 0 1 0 0.104672 
626 1 1.42332 6.96577 0.306434 0 0 0 0.00618706 
1863 1 8.7732 1.11729 2.06083 0 1 0 0.0479209 
1231 1 9.07895 0.385411 2.7006 0 0 1 0.0118341 
3639 2 8.71701 1.33524 2.88532 0 0 1 0.0312274 
3994 2 0.296182 4.17359 4.74216 1 0 0 0.0456388 
89 1 1.29165 2.33672 1.49119 0 0 -1 0.0302461 
1095 1 8.81783 6.39327 4.59971 0 0 0 0.0124865 
1234 1 0.349253 2.70308 1.91054 0 0 0 0.0363454 
2910 1 1.06109 2.38141 2.86656 1 0 1 0.0107194 
4068 2 0.609464 3.08084 2.61336 1 0 -1 0.0148724 
1647 1 1.51568 3.13206 2.13676 0 0 0 0.0271833 
3569 2 0.226887 6.20186 0.364735 0 0 2 0.00479369 
288 1 2.72302 3.20848 1.9217 0 1 0 0.0381688 
3586 2 2.08566 2.68753 1.61028 0 0 1 0.0658467 
636 1 2.00368 2.34555 2.49955 0 0 0 0.002594 
3377 1 3.0392 2.50847 2.81132 1 1 1 0.0626658 
3319 1 2.92512 2.03313 1.81014 1 1 0 0.0131901 
3952 2 4.57387 1.7344 3.04053 1 1 0 0.0369573 
1123 1 3.71141 1.72972 2.48625 0 0 0 0.00219199 
538 1 3.79686 2.80483 1.86927 0 0 0 0.00766674 
610 1 4.65998 2.40061 2.48404 0 0 0 0.0172811 
4097 2 4.98144 2.94705 3.0906 0 0 1 0.0742462 
527 1 5.39878 2.02582 1.85334 0 0 0 0.00821371 
427 1 6.43935 2.29473 1.51584 0 1 0 0.0177993 
699 1 5.55668 1.90647 2.88025 0 0 1 0.0271837 
1026 1 5.85008 2.88159 2.31248 0 0 0 0.0025774 
354 1 7.1385 1.90461 2.16298 0 1 0 0.0124026 
4141 2 7.73272 2.55608 2.19752 0 2 0 0.0147639 
2060 1 6.52493 2.11593 3.04143 0 0 0 0.0406886 
753 1 6.91234 2.87014 2.41663 0 0 1 0.0326617 
2422 1 7.58743 2.25097 3.04002 0 1 1 0.0711514 
1250 1 9.24424 2.07469 1.8084 0 1 0 0.0135557 
706 1 8.49828 2.11978 2.64347 0 0 0 0.0131346 
1504 1 3.28868 1.63169 4.5971 0 1 0 0.0128859 
3921 2 8.823 2.83766 2.398 0 1 -1 0.0535605 
738 1 9.65764 9.48951 2.60375 0 0 0 0.0385321 
1218 1 0.217823 4.74473 1.52146 0 0 2 0.0276114 
1294 1 0.636123 3.85884 2.11865 0 1 0 0.0354607 
589 1 0.774767 4.51623 3.02415 0 0 0 0.0385851 
648 1 7.83584 3.70082 4.72356 0 0 0 0.00422419 
402 1 1.20047 3.51272 3.1097 0 0 0 0.00461702 
3556 2 2.13521 3.80474 1.62387 0 1 1 0.0362585 
613 1 2.28187 3.43631 2.9029 0 0 -1 0.0380784 
2897 1 1.65438 4.29261 2.40692 1 1 1 0.0137448 
2002 1 2.514 4.5161 2.92451 1 0 -1 0.0241709 
256 1 2.78859 4.40973 1.8923 0 0 0 0.0115262 
1433 1 4.1849 3.31207 2.74071 0 1 0 0.00139976 
3153 1 3.28407 3.79907 2.64634 1 0 1 0.0103535 
1288 1 4.42238 4.32911 2.23034 0 1 0 0.00900868 
1181 1 4.88634 3.22875 2.00986 0 0 0 0.0278557 
3295 1 5.19425 3.84081 2.90397 1 1 0 0.013273 
2213 1 5.34 4.92522 2.53334 0 0 1 0.0741949 
2427 1 6.3989 3.8476 2.63842 0 1 0 0.0240721 
4235 2 7.68222 3.05772 3.12825 1 0 -1 0.0432803 
649 1 6.81442 4.3449 1.81442 0 0 1 0.0355193 
3508 2 7.21713 3.64379 2.18203 0 1 1 0.0346242 
1639 1 7.81734 4.31207 2.14987 0 0 0 0.0821662 
1277 1 7.38417 3.82842 3.00926 0 0 -1 0.0623223 
1536 1 8.11113 3.32988 2.30125 0 0 0 0.0471582 
3869 2 8.26689 4.0117 2.9036 0 0 -1 0.0110546 
533 1 8.79848 3.87417 1.69008 0 0 0 0.0168963 
1158 1 9.14593 3.59808 2.7391 0 0 0 0.0224905 
1035 1 8.75424 4.6013 2.50837 0 0 1 0.0040155 
1347 1 1.10791 6.12965 1.7975 0 1 -1 0.0540132 
1260 1 8.43734 9.64164 1.06049 0 0 0 0.0742704 
3095 1 1.06051 5.12786 1.98002 1 0 0 0.0206303 
829 1 0.641352 5.96308 2.77685 0 0 0 0.0164477 
3608 2 1.60028 5.84511 2.45841 0 0 0 0.0118408 
119 1 1.53429 5.19201 2.97297 0 0 1 0.01259 
118 1 2.15316 5.18253 2.13575 0 0 0 0.00886547 
99 1 2.22243 6.01498 3.04557 0 0 0 0.0122263 
633 1 2.29877 6.24213 2.04874 0 0 0 0.00175341 
3532 2 2.72563 5.35672 2.81792 0 1 0 0.028397 
86 1 3.074 5.46891 1.84331 0 0 0 0.00547779 
1004 1 3.52954 4.87522 2.66819 0 0 1 0.00906779 
1994 1 4.02149 5.7488 2.00222 0 0 0 0.0144973 
64 1 4.40895 5.23353 2.89841 0 0 -1 0.0254513 
875 1 3.09794 6.11894 2.6555 0 1 1 0.0316755 
157 1 4.45745 6.25119 2.91361 0 0 1 0.0194041 
3520 2 3.74481 5.75344 3.06981 0 0 0 0.0314447 
1139 1 4.74351 5.02644 1.61714 0 0 0 0.0156204 
3037 1 5.10607 5.92935 2.09211 1 0 0 0.0140977 
525 1 5.8416 4.90543 1.58483 0 0 0 0.0793337 
4053 2 6.10028 4.58391 2.39704 0 0 -1 0.113331 
827 1 6.16017 5.59686 2.56185 0 0 0 0.0260072 
3575 2 6.38583 6.333 3.08646 0 1 0 0.00437029 
1083 1 7.8968 4.76147 3.12384 0 0 0 0.0406698 
662 1 6.9557 5.47567 1.78791 0 0 1 0.0498786 
635 1 6.97754 4.94097 2.69994 0 0 0 0.0389921 
579 1 7.2258 5.96594 2.83359 0 0 0 0.0636434 
1628 1 7.95803 5.37453 2.26954 0 0 0 0.1639 
3475 2 7.99499 5.73976 3.1117 0 0 -1 0.0647505 
724 1 3.99043 9.36363 3.90242 0 0 0 0.052603 
1040 1 8.90082 5.97691 1.79526 0 0 1 0.0120052 
3247 1 3.72987 0.0412376 2.57928 1 1 0 0.0409201 
1156 1 8.94785 5.53543 2.82166 0 0 0 0.0817607 
2468 1 0.318132 7.10051 2.88363 1 0 0 0.126231 
3347 1 0.922432 7.34087 2.04445 1 0 0 0.0199789 
2790 1 1.40302 6.75007 2.72637 1 0 -1 0.0149528 
273 1 1.45007 7.82232 2.9236 0 0 -1 0.0886903 
3072 1 0.39269 7.92285 3.51604 1 0 0 0.378551 
3920 2 0.606967 7.90463 2.67312 1 0 0 0.559356 
564 1 2.39576 7.07413 3.00276 0 0 0 0.0307528 
770 1 1.97903 7.25454 2.02075 0 0 1 0.0190577 
4203 2 2.27648 8.00927 2.89569 0 0 0 0.014956 
559 1 2.79719 7.88495 2.14439 0 0 0 0.0109019 
3827 2 2.87395 6.9449 2.21238 0 1 1 0.0157959 
3256 1 4.40248 6.68758 1.50907 1 0 0 0.0387749 
3257 1 3.36761 6.47036 1.71633 1 0 0 0.0110087 
3741 2 4.73166 7.59112 1.64862 0 -1 2 0.122825 
2990 1 3.68047 7.4099 1.89267 1 0 0 0.0412634 
3855 2 3.99424 6.56816 2.2996 0 0 -1 0.00924137 
895 1 4.62887 7.19815 2.50066 0 0 1 0.0348969 
1530 1 3.49352 7.02237 2.89495 0 0 1 0.0165864 
3638 2 3.55933 7.92773 2.57159 0 0 0 0.0281183 
126 1 5.36879 7.85689 2.45387 0 0 0 0.0230458 
832 1 5.40375 6.96696 1.77509 0 0 0 0.0174102 
556 1 5.50425 6.66578 2.81914 0 0 0 0.01785 
224 1 6.45304 6.60276 2.26291 0 0 0 0.0105998 
1602 1 6.28755 7.62381 1.88607 0 0 0 0.0576013 
1410 1 6.23727 7.3587 2.97137 0 0 0 0.0275957 
1068 1 7.5274 6.45253 1.90417 0 0 0 0.089649 
1160 1 7.19419 7.28716 2.5819 0 0 1 0.00859018 
3953 2 8.09673 7.24326 2.55833 0 0 -2 0.120826 
1438 1 8.2599 6.35501 2.61158 0 0 0 0.139631 
2840 1 9.35879 7.51666 1.59318 0 0 0 0.00790377 
1539 1 8.35818 7.17233 1.74006 0 0 0 0.0252238 
1652 1 8.76288 7.80645 2.61169 0 0 1 0.0145762 
1388 1 9.17705 6.84111 2.37799 0 0 1 0.00969721 
78 1 0.307129 1.67881 1.6515 0 0 0 0.0140842 
3547 2 8.7373 7.05668 3.12449 -1 1 0 0.0114379 
2566 1 1.25001 9.13974 1.82424 1 0 0 0.025859 
18 1 0.654193 8.35606 1.82782 0 0 0 0.0179947 
4174 2 0.321919 9.18038 3.15461 1 0 0 0.0261764 
742 1 0.947536 8.79145 2.74489 0 0 1 0.0223546 
3168 1 1.41705 7.68387 4.67552 1 0 0 0.0711452 
140 1 9.5149 4.16806 4.26719 0 0 1 0.0257971 
136 1 1.8951 8.39022 2.12966 0 0 0 0.00272975 
3964 2 1.72358 9.22356 2.49703 0 0 0 0.0119785 
4284 2 2.69274 8.62758 1.77278 0 0 2 0.00777736 
2635 1 2.70251 8.88117 2.64457 1 0 0 0.00728334 
665 1 5.61247 8.38345 3.26655 0 0 1 0.0678594 
3973 2 4.78886 8.69563 1.7059 0 0 -1 0.196033 
144 1 3.52579 8.70624 1.93894 0 0 0 0.00623723 
644 1 4.35068 8.22286 2.33726 0 0 1 0.0298322 
3269 1 3.73369 8.80005 3.00212 1 0 0 0.0142373 
774 1 4.47602 9.45897 2.29197 0 0 0 0.042873 
3815 2 4.79451 8.19594 3.13873 0 1 0 0.0509013 
307 1 5.37012 8.90375 2.25289 0 0 0 0.0504691 
3583 2 6.24223 8.16482 2.51485 -1 0 1 0.245945 
1016 1 6.30259 9.08554 2.6528 0 0 0 0.0777538 
1140 1 3.09635 7.65046 0.215911 0 0 0 0.00395582 
2717 1 0.242569 5.42761 0.1073 1 0 0 0.0270118 
1752 1 7.8857 8.50457 2.91781 0 0 0 0.145039 
1832 1 7.08512 8.47179 2.10452 0 0 0 0.0357617 
1442 1 7.78289 9.23541 1.81781 0 0 0 0.0762305 
4279 2 7.12079 9.33861 2.4574 1 0 0 0.182892 
1529 1 6.86844 8.13306 3.10197 0 0 0 0.0716046 
2447 1 8.77677 8.39127 3.61845 0 0 0 0.00280566 
1134 1 8.14884 8.25823 1.83446 0 0 1 0.0478664 
4223 2 8.61683 9.00949 1.60257 1 0 1 0.0635285 
1142 1 8.68054 8.88128 2.39849 0 0 1 0.129596 
758 1 0.133765 4.91698 4.21637 0 0 0 0.0134986 
751 1 9.6513 8.52396 2.13536 0 0 1 0.0776036 
431 1 0.530504 2.35791 4.74155 0 1 0 0.00148385 
107 1 1.31641 0.895532 3.87904 0 0 0 0.00580368 
412 1 0.388938 1.37963 4.27193 0 1 1 0.0074941 
206 1 5.96361 5.24982 0.00668415 0 0 1 0.0057277 
3410 1 2.36958 1.00296 3.88886 1 1 0 0.0358411 
4186 2 9.50005 1.27005 1.56067 0 1 1 0.0629926 
4194 2 4.51334 0.439821 3.62628 1 1 1 0.0159565 
401 1 3.61734 0.690304 4.06195 0 1 0 0.0166295 
627 1 4.6402 0.704974 4.49334 0 0 0 0.00934504 
355 1 4.25933 1.53257 3.88907 0 1 0 0.0244493 
787 1 7.58147 4.89333 4.7159 0 0 0 0.0342989 
4230 2 8.80017 6.303 0.33303 1 0 0 0.169065 
904 1 5.09397 1.16316 3.45961 0 1 2 0.0193486 
3947 2 3.19962 7.64366 4.65679 1 0 1 0.0601384 
4038 2 5.51616 0.431863 3.38319 0 1 0 0.00985998 
222 1 2.77643 8.39085 4.78731 0 0 0 0.0364524 
3143 1 5.67086 0.739165 4.22096 1 0 0 0.0389788 
383 1 7.26681 0.455406 3.35424 0 1 1 0.0118348 
1805 1 7.75026 0.919254 4.38444 0 1 -1 0.0461111 
1326 1 6.58699 1.21915 4.38474 0 1 -1 0.0501226 
1304 1 7.24772 1.44598 3.66164 0 1 0 0.133339 
3903 2 9.00046 0.533185 0.183913 0 1 -1 0.0699112 
730 1 6.00148 9.38201 3.58183 0 0 1 0.00457001 
2177 1 8.3143 0.641236 3.41139 0 0 0 0.0146904 
2165 1 9.40467 9.31099 1.45225 0 0 1 0.0328143 
1557 1 9.28276 1.11938 3.54251 0 0 0 0.0259864 
1227 1 8.80469 0.697516 4.33989 0 0 1 0.00169765 
790 1 2.46467 0.147994 1.36561 0 1 0 0.031013 
518 1 1.49115 2.76922 4.66606 0 0 0 0.00800411 
3659 2 0.418522 2.07847 3.75315 1 1 -1 0.0330166 
814 1 1.30657 1.90635 3.9625 0 1 0 0.00334499 
2675 1 0.69301 2.88905 3.8606 1 0 1 0.00375225 
4184 2 2.65428 2.84841 3.48517 1 1 -1 0.019927 
2537 1 1.7275 2.77802 3.65357 1 0 -1 0.0410611 
1396 1 2.17566 1.83387 4.57446 0 1 0 0.0123277 
932 1 2.37099 1.99717 3.53194 0 1 1 0.0174461 
3340 1 3.07488 2.55867 4.2174 1 1 0 0.00048703 
151 1 3.2974 1.56215 3.53113 0 0 0 0.0190294 
607 1 3.94113 2.41205 3.32679 0 0 0 0.00504912 
778 1 4.14096 2.51065 4.39832 0 1 0 0.00973551 
185 1 5.17061 1.7122 4.6064 0 0 1 0.00876071 
2024 1 5.44194 2.69035 4.43025 0 0 -1 0.0302083 
1736 1 4.902 2.30701 3.62593 0 0 1 0.0182825 
1721 1 5.81443 2.87011 3.35239 0 0 0 0.0219279 
909 1 5.89498 1.97247 3.8837 0 1 0 0.0126778 
709 1 6.34989 3.16353 4.37865 0 0 0 0.00873625 
1878 1 7.11637 9.21904 3.35192 0 0 1 0.00392143 
1566 1 6.88418 3.08702 3.45061 0 0 0 0.0277463 
3854 2 7.70454 1.81581 4.30504 1 0 -2 0.119368 
215 1 6.96174 2.27462 4.17358 0 0 0 0.0734933 
2149 1 7.76296 2.94994 3.99995 0 0 0 0.0126417 
550 1 4.43601 8.93559 4.75032 0 0 0 0.103416 
517 1 5.59713 8.48696 4.38636 0 0 0 0.0104685 
1916 1 8.32594 1.72484 3.60394 0 1 1 0.0388606 
977 1 0.296277 5.8635 3.983 0 1 1 0.0129066 
333 1 2.82868 0.681684 4.77734 0 1 0 0.00134419 
1624 1 8.56424 2.89731 3.24629 0 0 -1 0.0113685 
3044 1 8.54515 1.77274 4.61601 1 0 0 0.0370445 
1678 1 9.22785 2.17101 3.82191 0 0 0 0.0275441 
3717 2 8.47748 2.51937 3.99278 0 1 1 0.0162492 
70 1 1.68461 8.75683 0.0825139 0 0 0 0.0125877 
3993 2 1.33932 3.42588 4.05161 0 0 1 0.0610036 
2733 1 0.816747 4.08922 3.98633 1 0 1 0.0124241 
198 1 2.36035 3.59823 4.0589 0 0 1 0.0142109 
1728 1 1.75696 4.30804 3.58508 1 0 1 0.00107781 
194 1 2.09457 4.69726 4.42862 0 0 1 0.00805822 
487 1 4.75447 9.02324 3.18124 0 0 0 0.0384676 
301 1 3.1655 4.4266 3.89415 0 1 0 0.00168966 
710 1 4.7074 8.22725 3.98497 0 0 0 0.0464754 
3694 2 9.26982 0.093663 3.46281 0 1 1 0.058722 
3155 1 4.22552 4.26919 3.28407 1 0 1 0.00397538 
1404 1 4.46086 3.33724 3.7395 0 1 1 0.0145539 
2569 1 3.3929 3.37206 3.68456 1 0 0 0.0186547 
2989 1 4.14201 4.17077 4.26105 1 0 0 0.0126222 
2644 1 0.92534 9.18944 4.74258 1 0 1 0.0806263 
335 1 5.12445 4.62369 3.62561 0 1 -1 0.025719 
2553 1 5.41303 3.72373 4.07575 0 0 -1 0.0270531 
1874 1 6.35384 3.94133 3.6598 0 1 0 0.00649559 
33 1 5.97737 4.6363 4.30149 0 0 -1 0.0607333 
1353 1 0.83702 0.496817 4.63652 0 1 0 0.0090501 
3304 1 2.39045 7.3448 4.72115 1 0 0 0.0587116 
2105 1 6.82898 3.98242 4.73432 0 0 0 0.00207442 
3864 2 7.32699 3.64424 3.96275 0 1 -1 0.0579498 
1532 1 7.12951 4.55591 3.80477 0 0 0 0.00755312 
1143 1 8.08964 3.90589 3.76144 0 0 1 0.0123481 
3889 2 7.49836 9.58143 1.10027 0 -1 1 0.0691732 
1193 1 8.77454 3.42483 4.42517 0 0 1 0.0118254 
3006 1 8.65243 4.55096 4.55188 1 0 0 0.00172756 
3780 2 9.0778 3.74268 3.61177 0 0 2 0.0390886 
821 1 3.03729 8.03132 3.24985 0 0 0 0.0123633 
2528 1 8.87969 4.59277 3.47908 0 0 0 0.0221703 
3976 2 4.05675 9.58755 3.04949 1 0 0 0.0309736 
4253 2 0.656643 5.31563 3.32469 1 0 0 0.0422074 
3839 2 1.23807 5.92564 4.4163 0 1 1 0.0137262 
2727 1 1.15951 5.1184 3.91431 1 0 0 0.0366513 
40 1 1.25422 6.087 3.53111 0 0 0 0.011589 
3083 1 0.110092 2.59558 3.06301 1 0 0 0.0198182 
4122 2 0.506981 6.54157 3.52284 1 -1 0 0.0730442 
3902 2 2.03699 5.13974 3.61778 1 0 1 0.106074 
521 1 2.11923 5.77633 4.12249 0 0 0 0.00791009 
3640 2 2.93104 6.49008 3.46543 0 -1 1 0.0298356 
221 1 2.93456 6.2989 4.34902 0 0 0 0.0125896 
1848 1 2.95917 5.26167 4.58917 0 1 -1 0.0216536 
1653 1 3.05376 5.42386 3.55964 0 0 0 0.00801894 
718 1 4.3874 6.19755 4.67866 0 0 0 0.0165842 
3477 2 3.66709 5.7779 4.44334 0 -1 -2 0.00522323 
1392 1 4.00306 5.1171 3.86325 0 1 1 0.011198 
3523 2 4.62044 5.57684 3.59913 0 0 1 0.0882452 
1048 1 3.78694 6.36167 3.73863 0 0 0 0.0109333 
3141 1 5.40162 5.64181 3.21985 1 0 0 0.00920981 
1654 1 5.32862 5.47872 4.24045 0 0 0 0.0203312 
172 1 6.06964 4.79194 3.26553 0 0 0 0.0164941 
600 1 2.77638 8.86982 3.8413 0 0 0 0.0259474 
3600 2 8.00444 6.01583 4.48279 0 0 0 0.0254278 
4159 2 6.8161 6.20119 4.21801 0 0 0 0.0956518 
1445 1 6.39826 5.69862 3.66763 0 0 1 0.0836048 
4100 2 6.79905 5.19327 4.36888 1 0 1 0.0255543 
2108 1 7.45344 5.6819 3.80181 0 0 0 0.071497 
3798 2 8.0034 4.88404 4.0139 0 1 -1 0.0175947 
2711 1 2.33971 1.75091 0.010479 1 1 1 0.0376847 
516 1 0.387201 7.23085 0.158338 0 0 0 0.0460534 
3526 2 9.41016 8.6398 3.00257 -1 0 0 0.072473 
2037 1 8.58601 5.53783 3.9554 0 0 -1 0.0106706 
1876 1 8.21133 6.47484 3.62219 0 0 0 0.0234459 
3426 1 0.484364 8.11446 4.53866 1 0 0 0.193269 
3991 2 9.60024 6.03628 4.20871 0 1 1 0.00824151 
4236 2 0.391043 1.96471 2.5576 1 0 0 0.0327399 
2119 1 0.706907 6.72652 4.55575 1 -1 1 0.0254391 
466 1 1.14362 7.13294 3.69289 0 0 1 0.104357 
4240 2 1.36833 8.04299 3.79269 1 -1 0 0.00498307 
2929 1 7.69969 8.40624 3.93049 0 0 1 0.0700866 
2556 1 2.22842 7.85522 3.84029 1 0 1 0.0118393 
434 1 2.0768 6.76165 3.9108 0 0 0 0.0534524 
666 1 3.1742 7.22662 3.88099 0 0 0 0.00433097 
1244 1 4.07765 7.78148 3.27332 0 0 0 0.0111057 
2399 1 4.25479 9.22209 1.27148 0 0 0 0.182593 
534 1 4.17335 7.26363 4.18246 0 0 0 0.000962586 
3763 2 4.24784 6.95783 3.37241 1 0 1 0.00132784 
1349 1 7.1957 9.51993 4.38407 0 0 -1 0.0117763 
430 1 5.10739 7.40042 3.40767 0 0 0 0.0549385 
1275 1 5.23829 7.41059 4.4488 0 0 0 0.0442179 
766 1 4.89595 6.47774 3.79259 0 0 0 0.0231453 
57 1 5.88232 6.64685 3.84155 0 0 0 0.0325095 
1988 1 6.08354 7.67469 3.93037 0 0 0 0.0792057 
1039 1 3.63643 8.35493 4.11879 0 0 1 0.00866755 
23 1 7.52788 6.76375 4.44495 0 0 0 0.0450716 
3041 1 6.89976 6.79309 3.59711 1 0 -1 0.0701925 
1705 1 7.07848 7.68546 4.22412 0 0 1 0.0636057 
177 1 7.88105 7.45717 3.46304 0 0 0 0.0285994 
2685 1 9.23386 6.36428 3.44916 0 0 0 0.0284138 
1453 1 8.70638 7.30311 4.08406 0 0 0 0.00433115 
2861 1 9.40973 7.56733 3.42216 0 0 0 0.00878122 
3071 1 6.64925 8.60781 4.05328 1 0 0 0.00188814 
4137 2 1.5751 9.32589 3.98848 1 1 1 0.0878917 
2169 1 0.911473 8.82475 3.78367 1 0 0 0.0370922 
2357 1 8.9972 4.95342 0.110592 0 0 0 0.053123 
2302 1 9.34038 5.32625 4.68639 0 0 0 0.0623665 
2995 1 1.7875 8.63112 4.38023 1 0 0 0.00453334 
465 1 1.88229 8.78405 3.3121 0 0 0 0.0337239 
3320 1 5.10062 9.50433 4.11814 1 0 0 0.0447906 
1554 1 3.13732 3.04799 0.257498 1 0 0 0.00864883 
1362 1 8.6359 9.04909 0.141394 0 0 0 0.016359 
2736 1 0.152141 3.61767 3.20099 1 0 0 0.00281925 
540 1 4.74942 3.39025 4.7482 0 0 0 0.0291007 
1422 1 6.1675 9.4285 4.64568 0 0 1 0.0139823 
1667 1 9.29338 2.57287 4.79543 0 0 0 0.0306121 
1526 1 9.67044 8.57521 0.206659 0 0 1 0.0707341 
1644 1 9.19294 1.34961 0.0842808 0 0 1 0.0381972 
3912 2 9.57782 3.38375 4.65936 0 1 0 0.00697519 
3764 2 0.222224 5.11209 2.42404 0 0 2 0.00682796 
768 1 1.662 3.87274 4.75919 0 1 0 0.00732397 
3554 2 3.49202 4.60777 4.71152 0 1 2 0.024448 
1089 1 6.99122 0.124832 4.35251 0 0 0 0.0147557 
938 1 0.700417 3.39392 4.82546 0 1 0 0.00287886 
1645 1 3.63804 3.40733 4.68599 0 0 0 0.0116689 
3612 2 6.29768 0.41819 4.7733 0 0 0 0.00294828 
4165 2 9.5918 7.6528 2.50369 0 0 1 0.00424255 
201 1 2.48602 4.21901 0.115277 0 0 2 0.0443935 
3524 2 6.33868 9.22088 0.0283142 0 0 1 0.178874 
29 1 7.14408 5.31445 0.0218002 0 0 0 0.00505535 
2004 1 0.259123 0.185972 0.00579888 1 0 1 0.0195703 
1192 1 6.16948 5.68773 4.81086 0 0 1 0.0616377 
3024 1 1.00421 0.776479 5.77962 1 1 0 0.00130224 
3558 2 0.390029 1.3546 6.13719 1 0 1 0.0164845 
3724 2 8.29885 7.10016 4.93401 0 0 0 0.0204007 
3463 2 2.22631 9.34952 9.51826 0 0 0 0.00474168 
1371 1 9.61687 3.339 6.23107 0 1 0 0.0145141 
1276 1 2.01354 0.786795 6.11975 0 0 -1 0.0169514 
4300 2 1.63633 1.47077 5.68994 0 1 0 0.0323063 
2933 1 2.45595 1.50619 5.48492 0 1 0 0.0341528 
3188 1 1.83751 0.792742 5.06895 1 0 0 0.0101358 
1764 1 3.03465 0.457603 5.90486 0 1 -1 0.00788947 
4273 2 4.28573 0.982258 5.76169 1 1 0 0.0290944 
1720 1 3.7916 0.559207 5.16285 0 0 0 0.0429848 
578 1 3.43707 1.46161 5.78533 0 0 0 0.0408886 
3999 2 4.3665 8.65879 9.4405 0 0 0 0.0278865 
582 1 5.00112 0.945706 5.42975 0 0 0 0.0172306 
471 1 4.9329 0.347978 6.25949 0 1 1 0.00994054 
417 1 5.7518 0.984178 6.16593 0 1 0 0.00748003 
2048 1 5.97656 1.1526 5.16396 0 0 -1 0.0170489 
2184 1 1.37686 0.05392 6.50294 1 0 0 0.0374401 
2201 1 7.01297 0.792562 5.26411 0 0 0 0.00595459 
880 1 6.67683 0.378294 6.17235 0 1 0 0.0109139 
1710 1 8.02391 1.11122 5.3842 0 0 1 0.0117943 
2319 1 3.08333 1.01602 9.59403 0 0 -1 0.0123976 
286 1 7.522 1.11157 6.34422 0 1 0 0.00480882 
1310 1 6.63128 1.63008 5.95322 0 1 0 0.0585255 
1036 1 9.11545 1.12385 5.35583 0 0 1 0.00949605 
1291 1 8.65074 0.626416 6.13493 0 1 0 0.00172454 
2074 1 5.84093 9.61649 8.64208 0 0 0 0.00902942 
2493 1 9.40255 1.45275 6.39107 0 0 0 0.00222629 
1688 1 7.83546 0.129471 8.74243 0 0 0 0.0244383 
4048 2 1.04128 2.48485 5.41034 1 1 0 0.00674847 
141 1 1.01175 1.88794 6.00911 0 0 0 0.0126041 
1527 1 0.403236 2.99409 5.81601 1 0 -1 0.0072989 
154 1 1.41088 3.348 5.6109 0 0 0 0.0498828 
3324 1 2.00115 2.41934 5.53888 1 1 0 0.0517742 
2068 1 8.47959 0.0824921 5.16702 0 0 0 0.0126851 
1521 1 2.3394 3.22353 6.11976 0 0 0 0.0512246 
3488 2 9.63116 7.39686 8.87861 -1 0 -1 0.211432 
1131 1 2.88629 2.27919 6.12698 0 0 0 0.0217627 
4054 2 6.50357 8.76004 5.12808 1 0 0 0.065298 
1069 1 4.4853 1.74854 6.07025 0 0 0 0.0313386 
248 1 4.65562 2.50657 5.27014 0 0 0 0.0156136 
83 1 4.10655 2.74764 6.14567 0 0 -1 0.0519176 
1425 1 3.56661 2.53373 5.2274 0 1 0 0.0183972 
3503 2 4.14227 3.24618 5.37808 0 0 1 0.0204457 
1801 1 5.19542 2.68432 6.31149 0 1 0 0.0198657 
3727 2 5.96117 2.19197 6.37542 0 1 -1 0.133425 
881 1 5.62774 2.96738 5.45198 0 1 1 0.0273617 
2093 1 5.39747 1.90746 5.68116 0 0 0 0.0784392 
1082 1 6.58756 2.72624 5.96275 0 0 -1 0.0739408 
1117 1 7.72419 2.31665 5.94809 0 0 0 0.0671802 
1446 1 8.11123 2.64279 4.91185 0 1 0 0.014076 
2097 1 8.75195 2.11882 5.63532 0 0 0 0.0158301 
3688 2 9.39006 2.6402 5.76265 0 0 2 0.00852265 
4301 2 8.38237 2.7869 6.17785 0 0 0 0.0902768 
941 1 0.69759 4.0788 5.63021 0 1 0 0.0436099 
621 1 6.55532 3.81118 9.35836 0 0 0 0.0023723 
1826 1 8.91104 8.76473 8.87033 0 0 -1 0.0639351 
323 1 0.174834 1.27657 5.32795 0 1 0 0.0131099 
900 1 6.41373 7.96169 4.90615 0 1 0 0.0701326 
3747 2 2.17016 3.74333 5.45964 0 0 0 0.0218946 
389 1 1.67166 4.58308 5.63742 0 1 0 0.0278962 
719 1 2.58683 4.26183 5.95912 0 0 1 0.0442203 
1321 1 1.58021 3.88855 6.40943 0 0 0 0.0122244 
1477 1 3.31304 3.50252 5.74026 0 1 0 0.0305787 
3149 1 0.144834 0.205031 5.49055 1 0 0 0.00307118 
1924 1 4.75396 3.53335 5.86423 0 0 0 0.00237333 
341 1 4.15103 4.19977 5.28375 0 1 0 0.0528703 
4042 2 3.90976 3.57969 6.39135 0 1 1 0.00588207 
3376 1 1.73881 6.54104 4.85054 1 1 -1 0.0264523 
1074 1 5.23153 4.50031 5.7536 0 0 0 0.00165669 
4088 2 6.11524 4.5004 5.85446 1 0 -1 0.0217674 
1136 1 5.87617 3.99495 5.111 0 0 0 0.0165996 